V -t * -v 1.0a5 -a 0
A -t * -n 1 -p 0 -o 0x7fffffff -c 30 -a 1
A -t * -h 1 -m 1073741823 -s 0
c -t * -i 4 -n Cyan
c -t * -i 0 -n Red
c -t * -i 1 -n Blue
c -t * -i 2 -n Azure
c -t * -i 3 -n Coral
n -t * -a 4 -s 4 -S UP -v circle -c black -i black
n -t * -a 0 -s 0 -S UP -v circle -c black -i black
n -t * -a 5 -s 5 -S UP -v circle -c black -i black
n -t * -a 1 -s 1 -S UP -v circle -c black -i black
n -t * -a 2 -s 2 -S UP -v circle -c black -i black
n -t * -a 3 -s 3 -S UP -v circle -c black -i black
l -t * -s 1 -d 0 -S UP -r 1000000 -D 0.01 -c black
l -t * -s 2 -d 0 -S UP -r 1000000 -D 0.01 -c black
l -t * -s 3 -d 0 -S UP -r 1000000 -D 0.01 -c black
l -t * -s 4 -d 0 -S UP -r 1000000 -D 0.01 -c black
l -t * -s 5 -d 0 -S UP -r 1000000 -D 0.01 -c black
+ -t 0.1 -s 1 -d 0 -p tcp -e 40 -c 0 -i 0 -a 0 -x {1.0 2.0 0 ------- null}
- -t 0.1 -s 1 -d 0 -p tcp -e 40 -c 0 -i 0 -a 0 -x {1.0 2.0 0 ------- null}
h -t 0.1 -s 1 -d 0 -p tcp -e 40 -c 0 -i 0 -a 0 -x {1.0 2.0 -1 ------- null}
+ -t 0.1 -s 1 -d 0 -p tcp -e 40 -c 1 -i 1 -a 1 -x {1.1 3.0 0 ------- null}
+ -t 0.1 -s 1 -d 0 -p tcp -e 40 -c 2 -i 2 -a 2 -x {1.2 4.0 0 ------- null}
+ -t 0.1 -s 2 -d 0 -p tcp -e 40 -c 3 -i 3 -a 3 -x {2.1 3.1 0 ------- null}
- -t 0.1 -s 2 -d 0 -p tcp -e 40 -c 3 -i 3 -a 3 -x {2.1 3.1 0 ------- null}
h -t 0.1 -s 2 -d 0 -p tcp -e 40 -c 3 -i 3 -a 3 -x {2.1 3.1 -1 ------- null}
+ -t 0.1 -s 2 -d 0 -p tcp -e 40 -c 4 -i 4 -a 4 -x {2.2 5.0 0 ------- null}
- -t 0.10032 -s 1 -d 0 -p tcp -e 40 -c 1 -i 1 -a 1 -x {1.1 3.0 0 ------- null}
h -t 0.10032 -s 1 -d 0 -p tcp -e 40 -c 1 -i 1 -a 1 -x {1.1 3.0 -1 ------- null}
- -t 0.10032 -s 2 -d 0 -p tcp -e 40 -c 4 -i 4 -a 4 -x {2.2 5.0 0 ------- null}
h -t 0.10032 -s 2 -d 0 -p tcp -e 40 -c 4 -i 4 -a 4 -x {2.2 5.0 -1 ------- null}
- -t 0.10064 -s 1 -d 0 -p tcp -e 40 -c 2 -i 2 -a 2 -x {1.2 4.0 0 ------- null}
h -t 0.10064 -s 1 -d 0 -p tcp -e 40 -c 2 -i 2 -a 2 -x {1.2 4.0 -1 ------- null}
r -t 0.11032 -s 1 -d 0 -p tcp -e 40 -c 0 -i 0 -a 0 -x {1.0 2.0 0 ------- null}
+ -t 0.11032 -s 0 -d 2 -p tcp -e 40 -c 0 -i 0 -a 0 -x {1.0 2.0 0 ------- null}
- -t 0.11032 -s 0 -d 2 -p tcp -e 40 -c 0 -i 0 -a 0 -x {1.0 2.0 0 ------- null}
h -t 0.11032 -s 0 -d 2 -p tcp -e 40 -c 0 -i 0 -a 0 -x {1.0 2.0 -1 ------- null}
r -t 0.11032 -s 2 -d 0 -p tcp -e 40 -c 3 -i 3 -a 3 -x {2.1 3.1 0 ------- null}
+ -t 0.11032 -s 0 -d 3 -p tcp -e 40 -c 3 -i 3 -a 3 -x {2.1 3.1 0 ------- null}
- -t 0.11032 -s 0 -d 3 -p tcp -e 40 -c 3 -i 3 -a 3 -x {2.1 3.1 0 ------- null}
h -t 0.11032 -s 0 -d 3 -p tcp -e 40 -c 3 -i 3 -a 3 -x {2.1 3.1 -1 ------- null}
r -t 0.11064 -s 1 -d 0 -p tcp -e 40 -c 1 -i 1 -a 1 -x {1.1 3.0 0 ------- null}
+ -t 0.11064 -s 0 -d 3 -p tcp -e 40 -c 1 -i 1 -a 1 -x {1.1 3.0 0 ------- null}
r -t 0.11064 -s 2 -d 0 -p tcp -e 40 -c 4 -i 4 -a 4 -x {2.2 5.0 0 ------- null}
+ -t 0.11064 -s 0 -d 5 -p tcp -e 40 -c 4 -i 4 -a 4 -x {2.2 5.0 0 ------- null}
- -t 0.11064 -s 0 -d 5 -p tcp -e 40 -c 4 -i 4 -a 4 -x {2.2 5.0 0 ------- null}
h -t 0.11064 -s 0 -d 5 -p tcp -e 40 -c 4 -i 4 -a 4 -x {2.2 5.0 -1 ------- null}
- -t 0.11064 -s 0 -d 3 -p tcp -e 40 -c 1 -i 1 -a 1 -x {1.1 3.0 0 ------- null}
h -t 0.11064 -s 0 -d 3 -p tcp -e 40 -c 1 -i 1 -a 1 -x {1.1 3.0 -1 ------- null}
r -t 0.11096 -s 1 -d 0 -p tcp -e 40 -c 2 -i 2 -a 2 -x {1.2 4.0 0 ------- null}
+ -t 0.11096 -s 0 -d 4 -p tcp -e 40 -c 2 -i 2 -a 2 -x {1.2 4.0 0 ------- null}
- -t 0.11096 -s 0 -d 4 -p tcp -e 40 -c 2 -i 2 -a 2 -x {1.2 4.0 0 ------- null}
h -t 0.11096 -s 0 -d 4 -p tcp -e 40 -c 2 -i 2 -a 2 -x {1.2 4.0 -1 ------- null}
r -t 0.12064 -s 0 -d 2 -p tcp -e 40 -c 0 -i 0 -a 0 -x {1.0 2.0 0 ------- null}
+ -t 0.12064 -s 2 -d 0 -p ack -e 40 -c 0 -i 5 -a 0 -x {2.0 1.0 0 ------- null}
- -t 0.12064 -s 2 -d 0 -p ack -e 40 -c 0 -i 5 -a 0 -x {2.0 1.0 0 ------- null}
h -t 0.12064 -s 2 -d 0 -p ack -e 40 -c 0 -i 5 -a 0 -x {2.0 1.0 -1 ------- null}
r -t 0.12064 -s 0 -d 3 -p tcp -e 40 -c 3 -i 3 -a 3 -x {2.1 3.1 0 ------- null}
+ -t 0.12064 -s 3 -d 0 -p ack -e 40 -c 3 -i 6 -a 3 -x {3.1 2.1 0 ------- null}
- -t 0.12064 -s 3 -d 0 -p ack -e 40 -c 3 -i 6 -a 3 -x {3.1 2.1 0 ------- null}
h -t 0.12064 -s 3 -d 0 -p ack -e 40 -c 3 -i 6 -a 3 -x {3.1 2.1 -1 ------- null}
r -t 0.12096 -s 0 -d 5 -p tcp -e 40 -c 4 -i 4 -a 4 -x {2.2 5.0 0 ------- null}
+ -t 0.12096 -s 5 -d 0 -p ack -e 40 -c 4 -i 7 -a 4 -x {5.0 2.2 0 ------- null}
- -t 0.12096 -s 5 -d 0 -p ack -e 40 -c 4 -i 7 -a 4 -x {5.0 2.2 0 ------- null}
h -t 0.12096 -s 5 -d 0 -p ack -e 40 -c 4 -i 7 -a 4 -x {5.0 2.2 -1 ------- null}
r -t 0.12096 -s 0 -d 3 -p tcp -e 40 -c 1 -i 1 -a 1 -x {1.1 3.0 0 ------- null}
+ -t 0.12096 -s 3 -d 0 -p ack -e 40 -c 1 -i 8 -a 1 -x {3.0 1.1 0 ------- null}
- -t 0.12096 -s 3 -d 0 -p ack -e 40 -c 1 -i 8 -a 1 -x {3.0 1.1 0 ------- null}
h -t 0.12096 -s 3 -d 0 -p ack -e 40 -c 1 -i 8 -a 1 -x {3.0 1.1 -1 ------- null}
r -t 0.12128 -s 0 -d 4 -p tcp -e 40 -c 2 -i 2 -a 2 -x {1.2 4.0 0 ------- null}
+ -t 0.12128 -s 4 -d 0 -p ack -e 40 -c 2 -i 9 -a 2 -x {4.0 1.2 0 ------- null}
- -t 0.12128 -s 4 -d 0 -p ack -e 40 -c 2 -i 9 -a 2 -x {4.0 1.2 0 ------- null}
h -t 0.12128 -s 4 -d 0 -p ack -e 40 -c 2 -i 9 -a 2 -x {4.0 1.2 -1 ------- null}
r -t 0.13096 -s 2 -d 0 -p ack -e 40 -c 0 -i 5 -a 0 -x {2.0 1.0 0 ------- null}
+ -t 0.13096 -s 0 -d 1 -p ack -e 40 -c 0 -i 5 -a 0 -x {2.0 1.0 0 ------- null}
- -t 0.13096 -s 0 -d 1 -p ack -e 40 -c 0 -i 5 -a 0 -x {2.0 1.0 0 ------- null}
h -t 0.13096 -s 0 -d 1 -p ack -e 40 -c 0 -i 5 -a 0 -x {2.0 1.0 -1 ------- null}
r -t 0.13096 -s 3 -d 0 -p ack -e 40 -c 3 -i 6 -a 3 -x {3.1 2.1 0 ------- null}
+ -t 0.13096 -s 0 -d 2 -p ack -e 40 -c 3 -i 6 -a 3 -x {3.1 2.1 0 ------- null}
- -t 0.13096 -s 0 -d 2 -p ack -e 40 -c 3 -i 6 -a 3 -x {3.1 2.1 0 ------- null}
h -t 0.13096 -s 0 -d 2 -p ack -e 40 -c 3 -i 6 -a 3 -x {3.1 2.1 -1 ------- null}
r -t 0.13128 -s 5 -d 0 -p ack -e 40 -c 4 -i 7 -a 4 -x {5.0 2.2 0 ------- null}
+ -t 0.13128 -s 0 -d 2 -p ack -e 40 -c 4 -i 7 -a 4 -x {5.0 2.2 0 ------- null}
- -t 0.13128 -s 0 -d 2 -p ack -e 40 -c 4 -i 7 -a 4 -x {5.0 2.2 0 ------- null}
h -t 0.13128 -s 0 -d 2 -p ack -e 40 -c 4 -i 7 -a 4 -x {5.0 2.2 -1 ------- null}
r -t 0.13128 -s 3 -d 0 -p ack -e 40 -c 1 -i 8 -a 1 -x {3.0 1.1 0 ------- null}
+ -t 0.13128 -s 0 -d 1 -p ack -e 40 -c 1 -i 8 -a 1 -x {3.0 1.1 0 ------- null}
- -t 0.13128 -s 0 -d 1 -p ack -e 40 -c 1 -i 8 -a 1 -x {3.0 1.1 0 ------- null}
h -t 0.13128 -s 0 -d 1 -p ack -e 40 -c 1 -i 8 -a 1 -x {3.0 1.1 -1 ------- null}
r -t 0.1316 -s 4 -d 0 -p ack -e 40 -c 2 -i 9 -a 2 -x {4.0 1.2 0 ------- null}
+ -t 0.1316 -s 0 -d 1 -p ack -e 40 -c 2 -i 9 -a 2 -x {4.0 1.2 0 ------- null}
- -t 0.1316 -s 0 -d 1 -p ack -e 40 -c 2 -i 9 -a 2 -x {4.0 1.2 0 ------- null}
h -t 0.1316 -s 0 -d 1 -p ack -e 40 -c 2 -i 9 -a 2 -x {4.0 1.2 -1 ------- null}
r -t 0.14128 -s 0 -d 1 -p ack -e 40 -c 0 -i 5 -a 0 -x {2.0 1.0 0 ------- null}
+ -t 0.14128 -s 1 -d 0 -p tcp -e 1040 -c 0 -i 10 -a 0 -x {1.0 2.0 1 ------- null}
- -t 0.14128 -s 1 -d 0 -p tcp -e 1040 -c 0 -i 10 -a 0 -x {1.0 2.0 1 ------- null}
h -t 0.14128 -s 1 -d 0 -p tcp -e 1040 -c 0 -i 10 -a 0 -x {1.0 2.0 -1 ------- null}
+ -t 0.14128 -s 1 -d 0 -p tcp -e 1040 -c 0 -i 11 -a 0 -x {1.0 2.0 2 ------- null}
r -t 0.14128 -s 0 -d 2 -p ack -e 40 -c 3 -i 6 -a 3 -x {3.1 2.1 0 ------- null}
+ -t 0.14128 -s 2 -d 0 -p tcp -e 1040 -c 3 -i 12 -a 3 -x {2.1 3.1 1 ------- null}
- -t 0.14128 -s 2 -d 0 -p tcp -e 1040 -c 3 -i 12 -a 3 -x {2.1 3.1 1 ------- null}
h -t 0.14128 -s 2 -d 0 -p tcp -e 1040 -c 3 -i 12 -a 3 -x {2.1 3.1 -1 ------- null}
+ -t 0.14128 -s 2 -d 0 -p tcp -e 1040 -c 3 -i 13 -a 3 -x {2.1 3.1 2 ------- null}
r -t 0.1416 -s 0 -d 2 -p ack -e 40 -c 4 -i 7 -a 4 -x {5.0 2.2 0 ------- null}
+ -t 0.1416 -s 2 -d 0 -p tcp -e 1040 -c 4 -i 14 -a 4 -x {2.2 5.0 1 ------- null}
+ -t 0.1416 -s 2 -d 0 -p tcp -e 1040 -c 4 -i 15 -a 4 -x {2.2 5.0 2 ------- null}
r -t 0.1416 -s 0 -d 1 -p ack -e 40 -c 1 -i 8 -a 1 -x {3.0 1.1 0 ------- null}
+ -t 0.1416 -s 1 -d 0 -p tcp -e 1040 -c 1 -i 16 -a 1 -x {1.1 3.0 1 ------- null}
+ -t 0.1416 -s 1 -d 0 -p tcp -e 1040 -c 1 -i 17 -a 1 -x {1.1 3.0 2 ------- null}
r -t 0.14192 -s 0 -d 1 -p ack -e 40 -c 2 -i 9 -a 2 -x {4.0 1.2 0 ------- null}
+ -t 0.14192 -s 1 -d 0 -p tcp -e 1040 -c 2 -i 18 -a 2 -x {1.2 4.0 1 ------- null}
+ -t 0.14192 -s 1 -d 0 -p tcp -e 1040 -c 2 -i 19 -a 2 -x {1.2 4.0 2 ------- null}
- -t 0.1496 -s 1 -d 0 -p tcp -e 1040 -c 0 -i 11 -a 0 -x {1.0 2.0 2 ------- null}
h -t 0.1496 -s 1 -d 0 -p tcp -e 1040 -c 0 -i 11 -a 0 -x {1.0 2.0 -1 ------- null}
- -t 0.1496 -s 2 -d 0 -p tcp -e 1040 -c 3 -i 13 -a 3 -x {2.1 3.1 2 ------- null}
h -t 0.1496 -s 2 -d 0 -p tcp -e 1040 -c 3 -i 13 -a 3 -x {2.1 3.1 -1 ------- null}
- -t 0.15792 -s 1 -d 0 -p tcp -e 1040 -c 1 -i 16 -a 1 -x {1.1 3.0 1 ------- null}
h -t 0.15792 -s 1 -d 0 -p tcp -e 1040 -c 1 -i 16 -a 1 -x {1.1 3.0 -1 ------- null}
- -t 0.15792 -s 2 -d 0 -p tcp -e 1040 -c 4 -i 14 -a 4 -x {2.2 5.0 1 ------- null}
h -t 0.15792 -s 2 -d 0 -p tcp -e 1040 -c 4 -i 14 -a 4 -x {2.2 5.0 -1 ------- null}
r -t 0.1596 -s 1 -d 0 -p tcp -e 1040 -c 0 -i 10 -a 0 -x {1.0 2.0 1 ------- null}
+ -t 0.1596 -s 0 -d 2 -p tcp -e 1040 -c 0 -i 10 -a 0 -x {1.0 2.0 1 ------- null}
- -t 0.1596 -s 0 -d 2 -p tcp -e 1040 -c 0 -i 10 -a 0 -x {1.0 2.0 1 ------- null}
h -t 0.1596 -s 0 -d 2 -p tcp -e 1040 -c 0 -i 10 -a 0 -x {1.0 2.0 -1 ------- null}
r -t 0.1596 -s 2 -d 0 -p tcp -e 1040 -c 3 -i 12 -a 3 -x {2.1 3.1 1 ------- null}
+ -t 0.1596 -s 0 -d 3 -p tcp -e 1040 -c 3 -i 12 -a 3 -x {2.1 3.1 1 ------- null}
- -t 0.1596 -s 0 -d 3 -p tcp -e 1040 -c 3 -i 12 -a 3 -x {2.1 3.1 1 ------- null}
h -t 0.1596 -s 0 -d 3 -p tcp -e 1040 -c 3 -i 12 -a 3 -x {2.1 3.1 -1 ------- null}
- -t 0.16624 -s 1 -d 0 -p tcp -e 1040 -c 1 -i 17 -a 1 -x {1.1 3.0 2 ------- null}
h -t 0.16624 -s 1 -d 0 -p tcp -e 1040 -c 1 -i 17 -a 1 -x {1.1 3.0 -1 ------- null}
- -t 0.16624 -s 2 -d 0 -p tcp -e 1040 -c 4 -i 15 -a 4 -x {2.2 5.0 2 ------- null}
h -t 0.16624 -s 2 -d 0 -p tcp -e 1040 -c 4 -i 15 -a 4 -x {2.2 5.0 -1 ------- null}
r -t 0.16792 -s 1 -d 0 -p tcp -e 1040 -c 0 -i 11 -a 0 -x {1.0 2.0 2 ------- null}
+ -t 0.16792 -s 0 -d 2 -p tcp -e 1040 -c 0 -i 11 -a 0 -x {1.0 2.0 2 ------- null}
r -t 0.16792 -s 2 -d 0 -p tcp -e 1040 -c 3 -i 13 -a 3 -x {2.1 3.1 2 ------- null}
+ -t 0.16792 -s 0 -d 3 -p tcp -e 1040 -c 3 -i 13 -a 3 -x {2.1 3.1 2 ------- null}
- -t 0.16792 -s 0 -d 2 -p tcp -e 1040 -c 0 -i 11 -a 0 -x {1.0 2.0 2 ------- null}
h -t 0.16792 -s 0 -d 2 -p tcp -e 1040 -c 0 -i 11 -a 0 -x {1.0 2.0 -1 ------- null}
- -t 0.16792 -s 0 -d 3 -p tcp -e 1040 -c 3 -i 13 -a 3 -x {2.1 3.1 2 ------- null}
h -t 0.16792 -s 0 -d 3 -p tcp -e 1040 -c 3 -i 13 -a 3 -x {2.1 3.1 -1 ------- null}
- -t 0.17456 -s 1 -d 0 -p tcp -e 1040 -c 2 -i 18 -a 2 -x {1.2 4.0 1 ------- null}
h -t 0.17456 -s 1 -d 0 -p tcp -e 1040 -c 2 -i 18 -a 2 -x {1.2 4.0 -1 ------- null}
r -t 0.17624 -s 1 -d 0 -p tcp -e 1040 -c 1 -i 16 -a 1 -x {1.1 3.0 1 ------- null}
+ -t 0.17624 -s 0 -d 3 -p tcp -e 1040 -c 1 -i 16 -a 1 -x {1.1 3.0 1 ------- null}
r -t 0.17624 -s 2 -d 0 -p tcp -e 1040 -c 4 -i 14 -a 4 -x {2.2 5.0 1 ------- null}
+ -t 0.17624 -s 0 -d 5 -p tcp -e 1040 -c 4 -i 14 -a 4 -x {2.2 5.0 1 ------- null}
- -t 0.17624 -s 0 -d 5 -p tcp -e 1040 -c 4 -i 14 -a 4 -x {2.2 5.0 1 ------- null}
h -t 0.17624 -s 0 -d 5 -p tcp -e 1040 -c 4 -i 14 -a 4 -x {2.2 5.0 -1 ------- null}
- -t 0.17624 -s 0 -d 3 -p tcp -e 1040 -c 1 -i 16 -a 1 -x {1.1 3.0 1 ------- null}
h -t 0.17624 -s 0 -d 3 -p tcp -e 1040 -c 1 -i 16 -a 1 -x {1.1 3.0 -1 ------- null}
r -t 0.17792 -s 0 -d 2 -p tcp -e 1040 -c 0 -i 10 -a 0 -x {1.0 2.0 1 ------- null}
+ -t 0.17792 -s 2 -d 0 -p ack -e 40 -c 0 -i 20 -a 0 -x {2.0 1.0 1 ------- null}
- -t 0.17792 -s 2 -d 0 -p ack -e 40 -c 0 -i 20 -a 0 -x {2.0 1.0 1 ------- null}
h -t 0.17792 -s 2 -d 0 -p ack -e 40 -c 0 -i 20 -a 0 -x {2.0 1.0 -1 ------- null}
r -t 0.17792 -s 0 -d 3 -p tcp -e 1040 -c 3 -i 12 -a 3 -x {2.1 3.1 1 ------- null}
+ -t 0.17792 -s 3 -d 0 -p ack -e 40 -c 3 -i 21 -a 3 -x {3.1 2.1 1 ------- null}
- -t 0.17792 -s 3 -d 0 -p ack -e 40 -c 3 -i 21 -a 3 -x {3.1 2.1 1 ------- null}
h -t 0.17792 -s 3 -d 0 -p ack -e 40 -c 3 -i 21 -a 3 -x {3.1 2.1 -1 ------- null}
- -t 0.18288 -s 1 -d 0 -p tcp -e 1040 -c 2 -i 19 -a 2 -x {1.2 4.0 2 ------- null}
h -t 0.18288 -s 1 -d 0 -p tcp -e 1040 -c 2 -i 19 -a 2 -x {1.2 4.0 -1 ------- null}
r -t 0.18456 -s 1 -d 0 -p tcp -e 1040 -c 1 -i 17 -a 1 -x {1.1 3.0 2 ------- null}
+ -t 0.18456 -s 0 -d 3 -p tcp -e 1040 -c 1 -i 17 -a 1 -x {1.1 3.0 2 ------- null}
r -t 0.18456 -s 2 -d 0 -p tcp -e 1040 -c 4 -i 15 -a 4 -x {2.2 5.0 2 ------- null}
+ -t 0.18456 -s 0 -d 5 -p tcp -e 1040 -c 4 -i 15 -a 4 -x {2.2 5.0 2 ------- null}
- -t 0.18456 -s 0 -d 5 -p tcp -e 1040 -c 4 -i 15 -a 4 -x {2.2 5.0 2 ------- null}
h -t 0.18456 -s 0 -d 5 -p tcp -e 1040 -c 4 -i 15 -a 4 -x {2.2 5.0 -1 ------- null}
- -t 0.18456 -s 0 -d 3 -p tcp -e 1040 -c 1 -i 17 -a 1 -x {1.1 3.0 2 ------- null}
h -t 0.18456 -s 0 -d 3 -p tcp -e 1040 -c 1 -i 17 -a 1 -x {1.1 3.0 -1 ------- null}
r -t 0.18624 -s 0 -d 2 -p tcp -e 1040 -c 0 -i 11 -a 0 -x {1.0 2.0 2 ------- null}
+ -t 0.18624 -s 2 -d 0 -p ack -e 40 -c 0 -i 22 -a 0 -x {2.0 1.0 2 ------- null}
- -t 0.18624 -s 2 -d 0 -p ack -e 40 -c 0 -i 22 -a 0 -x {2.0 1.0 2 ------- null}
h -t 0.18624 -s 2 -d 0 -p ack -e 40 -c 0 -i 22 -a 0 -x {2.0 1.0 -1 ------- null}
r -t 0.18624 -s 0 -d 3 -p tcp -e 1040 -c 3 -i 13 -a 3 -x {2.1 3.1 2 ------- null}
+ -t 0.18624 -s 3 -d 0 -p ack -e 40 -c 3 -i 23 -a 3 -x {3.1 2.1 2 ------- null}
- -t 0.18624 -s 3 -d 0 -p ack -e 40 -c 3 -i 23 -a 3 -x {3.1 2.1 2 ------- null}
h -t 0.18624 -s 3 -d 0 -p ack -e 40 -c 3 -i 23 -a 3 -x {3.1 2.1 -1 ------- null}
r -t 0.18824 -s 2 -d 0 -p ack -e 40 -c 0 -i 20 -a 0 -x {2.0 1.0 1 ------- null}
+ -t 0.18824 -s 0 -d 1 -p ack -e 40 -c 0 -i 20 -a 0 -x {2.0 1.0 1 ------- null}
- -t 0.18824 -s 0 -d 1 -p ack -e 40 -c 0 -i 20 -a 0 -x {2.0 1.0 1 ------- null}
h -t 0.18824 -s 0 -d 1 -p ack -e 40 -c 0 -i 20 -a 0 -x {2.0 1.0 -1 ------- null}
r -t 0.18824 -s 3 -d 0 -p ack -e 40 -c 3 -i 21 -a 3 -x {3.1 2.1 1 ------- null}
+ -t 0.18824 -s 0 -d 2 -p ack -e 40 -c 3 -i 21 -a 3 -x {3.1 2.1 1 ------- null}
- -t 0.18824 -s 0 -d 2 -p ack -e 40 -c 3 -i 21 -a 3 -x {3.1 2.1 1 ------- null}
h -t 0.18824 -s 0 -d 2 -p ack -e 40 -c 3 -i 21 -a 3 -x {3.1 2.1 -1 ------- null}
r -t 0.19288 -s 1 -d 0 -p tcp -e 1040 -c 2 -i 18 -a 2 -x {1.2 4.0 1 ------- null}
+ -t 0.19288 -s 0 -d 4 -p tcp -e 1040 -c 2 -i 18 -a 2 -x {1.2 4.0 1 ------- null}
- -t 0.19288 -s 0 -d 4 -p tcp -e 1040 -c 2 -i 18 -a 2 -x {1.2 4.0 1 ------- null}
h -t 0.19288 -s 0 -d 4 -p tcp -e 1040 -c 2 -i 18 -a 2 -x {1.2 4.0 -1 ------- null}
r -t 0.19456 -s 0 -d 5 -p tcp -e 1040 -c 4 -i 14 -a 4 -x {2.2 5.0 1 ------- null}
+ -t 0.19456 -s 5 -d 0 -p ack -e 40 -c 4 -i 24 -a 4 -x {5.0 2.2 1 ------- null}
- -t 0.19456 -s 5 -d 0 -p ack -e 40 -c 4 -i 24 -a 4 -x {5.0 2.2 1 ------- null}
h -t 0.19456 -s 5 -d 0 -p ack -e 40 -c 4 -i 24 -a 4 -x {5.0 2.2 -1 ------- null}
r -t 0.19456 -s 0 -d 3 -p tcp -e 1040 -c 1 -i 16 -a 1 -x {1.1 3.0 1 ------- null}
+ -t 0.19456 -s 3 -d 0 -p ack -e 40 -c 1 -i 25 -a 1 -x {3.0 1.1 1 ------- null}
- -t 0.19456 -s 3 -d 0 -p ack -e 40 -c 1 -i 25 -a 1 -x {3.0 1.1 1 ------- null}
h -t 0.19456 -s 3 -d 0 -p ack -e 40 -c 1 -i 25 -a 1 -x {3.0 1.1 -1 ------- null}
r -t 0.19656 -s 2 -d 0 -p ack -e 40 -c 0 -i 22 -a 0 -x {2.0 1.0 2 ------- null}
+ -t 0.19656 -s 0 -d 1 -p ack -e 40 -c 0 -i 22 -a 0 -x {2.0 1.0 2 ------- null}
- -t 0.19656 -s 0 -d 1 -p ack -e 40 -c 0 -i 22 -a 0 -x {2.0 1.0 2 ------- null}
h -t 0.19656 -s 0 -d 1 -p ack -e 40 -c 0 -i 22 -a 0 -x {2.0 1.0 -1 ------- null}
r -t 0.19656 -s 3 -d 0 -p ack -e 40 -c 3 -i 23 -a 3 -x {3.1 2.1 2 ------- null}
+ -t 0.19656 -s 0 -d 2 -p ack -e 40 -c 3 -i 23 -a 3 -x {3.1 2.1 2 ------- null}
- -t 0.19656 -s 0 -d 2 -p ack -e 40 -c 3 -i 23 -a 3 -x {3.1 2.1 2 ------- null}
h -t 0.19656 -s 0 -d 2 -p ack -e 40 -c 3 -i 23 -a 3 -x {3.1 2.1 -1 ------- null}
r -t 0.19856 -s 0 -d 1 -p ack -e 40 -c 0 -i 20 -a 0 -x {2.0 1.0 1 ------- null}
+ -t 0.19856 -s 1 -d 0 -p tcp -e 1040 -c 0 -i 26 -a 0 -x {1.0 2.0 3 ------- null}
- -t 0.19856 -s 1 -d 0 -p tcp -e 1040 -c 0 -i 26 -a 0 -x {1.0 2.0 3 ------- null}
h -t 0.19856 -s 1 -d 0 -p tcp -e 1040 -c 0 -i 26 -a 0 -x {1.0 2.0 -1 ------- null}
+ -t 0.19856 -s 1 -d 0 -p tcp -e 1040 -c 0 -i 27 -a 0 -x {1.0 2.0 4 ------- null}
r -t 0.19856 -s 0 -d 2 -p ack -e 40 -c 3 -i 21 -a 3 -x {3.1 2.1 1 ------- null}
+ -t 0.19856 -s 2 -d 0 -p tcp -e 1040 -c 3 -i 28 -a 3 -x {2.1 3.1 3 ------- null}
- -t 0.19856 -s 2 -d 0 -p tcp -e 1040 -c 3 -i 28 -a 3 -x {2.1 3.1 3 ------- null}
h -t 0.19856 -s 2 -d 0 -p tcp -e 1040 -c 3 -i 28 -a 3 -x {2.1 3.1 -1 ------- null}
+ -t 0.19856 -s 2 -d 0 -p tcp -e 1040 -c 3 -i 29 -a 3 -x {2.1 3.1 4 ------- null}
r -t 0.2012 -s 1 -d 0 -p tcp -e 1040 -c 2 -i 19 -a 2 -x {1.2 4.0 2 ------- null}
+ -t 0.2012 -s 0 -d 4 -p tcp -e 1040 -c 2 -i 19 -a 2 -x {1.2 4.0 2 ------- null}
- -t 0.2012 -s 0 -d 4 -p tcp -e 1040 -c 2 -i 19 -a 2 -x {1.2 4.0 2 ------- null}
h -t 0.2012 -s 0 -d 4 -p tcp -e 1040 -c 2 -i 19 -a 2 -x {1.2 4.0 -1 ------- null}
r -t 0.20288 -s 0 -d 5 -p tcp -e 1040 -c 4 -i 15 -a 4 -x {2.2 5.0 2 ------- null}
+ -t 0.20288 -s 5 -d 0 -p ack -e 40 -c 4 -i 30 -a 4 -x {5.0 2.2 2 ------- null}
- -t 0.20288 -s 5 -d 0 -p ack -e 40 -c 4 -i 30 -a 4 -x {5.0 2.2 2 ------- null}
h -t 0.20288 -s 5 -d 0 -p ack -e 40 -c 4 -i 30 -a 4 -x {5.0 2.2 -1 ------- null}
r -t 0.20288 -s 0 -d 3 -p tcp -e 1040 -c 1 -i 17 -a 1 -x {1.1 3.0 2 ------- null}
+ -t 0.20288 -s 3 -d 0 -p ack -e 40 -c 1 -i 31 -a 1 -x {3.0 1.1 2 ------- null}
- -t 0.20288 -s 3 -d 0 -p ack -e 40 -c 1 -i 31 -a 1 -x {3.0 1.1 2 ------- null}
h -t 0.20288 -s 3 -d 0 -p ack -e 40 -c 1 -i 31 -a 1 -x {3.0 1.1 -1 ------- null}
r -t 0.20488 -s 5 -d 0 -p ack -e 40 -c 4 -i 24 -a 4 -x {5.0 2.2 1 ------- null}
+ -t 0.20488 -s 0 -d 2 -p ack -e 40 -c 4 -i 24 -a 4 -x {5.0 2.2 1 ------- null}
- -t 0.20488 -s 0 -d 2 -p ack -e 40 -c 4 -i 24 -a 4 -x {5.0 2.2 1 ------- null}
h -t 0.20488 -s 0 -d 2 -p ack -e 40 -c 4 -i 24 -a 4 -x {5.0 2.2 -1 ------- null}
r -t 0.20488 -s 3 -d 0 -p ack -e 40 -c 1 -i 25 -a 1 -x {3.0 1.1 1 ------- null}
+ -t 0.20488 -s 0 -d 1 -p ack -e 40 -c 1 -i 25 -a 1 -x {3.0 1.1 1 ------- null}
- -t 0.20488 -s 0 -d 1 -p ack -e 40 -c 1 -i 25 -a 1 -x {3.0 1.1 1 ------- null}
h -t 0.20488 -s 0 -d 1 -p ack -e 40 -c 1 -i 25 -a 1 -x {3.0 1.1 -1 ------- null}
r -t 0.20688 -s 0 -d 1 -p ack -e 40 -c 0 -i 22 -a 0 -x {2.0 1.0 2 ------- null}
+ -t 0.20688 -s 1 -d 0 -p tcp -e 1040 -c 0 -i 32 -a 0 -x {1.0 2.0 5 ------- null}
+ -t 0.20688 -s 1 -d 0 -p tcp -e 1040 -c 0 -i 33 -a 0 -x {1.0 2.0 6 ------- null}
r -t 0.20688 -s 0 -d 2 -p ack -e 40 -c 3 -i 23 -a 3 -x {3.1 2.1 2 ------- null}
+ -t 0.20688 -s 2 -d 0 -p tcp -e 1040 -c 3 -i 34 -a 3 -x {2.1 3.1 5 ------- null}
+ -t 0.20688 -s 2 -d 0 -p tcp -e 1040 -c 3 -i 35 -a 3 -x {2.1 3.1 6 ------- null}
- -t 0.20688 -s 1 -d 0 -p tcp -e 1040 -c 0 -i 27 -a 0 -x {1.0 2.0 4 ------- null}
h -t 0.20688 -s 1 -d 0 -p tcp -e 1040 -c 0 -i 27 -a 0 -x {1.0 2.0 -1 ------- null}
- -t 0.20688 -s 2 -d 0 -p tcp -e 1040 -c 3 -i 29 -a 3 -x {2.1 3.1 4 ------- null}
h -t 0.20688 -s 2 -d 0 -p tcp -e 1040 -c 3 -i 29 -a 3 -x {2.1 3.1 -1 ------- null}
r -t 0.2112 -s 0 -d 4 -p tcp -e 1040 -c 2 -i 18 -a 2 -x {1.2 4.0 1 ------- null}
+ -t 0.2112 -s 4 -d 0 -p ack -e 40 -c 2 -i 36 -a 2 -x {4.0 1.2 1 ------- null}
- -t 0.2112 -s 4 -d 0 -p ack -e 40 -c 2 -i 36 -a 2 -x {4.0 1.2 1 ------- null}
h -t 0.2112 -s 4 -d 0 -p ack -e 40 -c 2 -i 36 -a 2 -x {4.0 1.2 -1 ------- null}
r -t 0.2132 -s 5 -d 0 -p ack -e 40 -c 4 -i 30 -a 4 -x {5.0 2.2 2 ------- null}
+ -t 0.2132 -s 0 -d 2 -p ack -e 40 -c 4 -i 30 -a 4 -x {5.0 2.2 2 ------- null}
- -t 0.2132 -s 0 -d 2 -p ack -e 40 -c 4 -i 30 -a 4 -x {5.0 2.2 2 ------- null}
h -t 0.2132 -s 0 -d 2 -p ack -e 40 -c 4 -i 30 -a 4 -x {5.0 2.2 -1 ------- null}
r -t 0.2132 -s 3 -d 0 -p ack -e 40 -c 1 -i 31 -a 1 -x {3.0 1.1 2 ------- null}
+ -t 0.2132 -s 0 -d 1 -p ack -e 40 -c 1 -i 31 -a 1 -x {3.0 1.1 2 ------- null}
- -t 0.2132 -s 0 -d 1 -p ack -e 40 -c 1 -i 31 -a 1 -x {3.0 1.1 2 ------- null}
h -t 0.2132 -s 0 -d 1 -p ack -e 40 -c 1 -i 31 -a 1 -x {3.0 1.1 -1 ------- null}
r -t 0.2152 -s 0 -d 2 -p ack -e 40 -c 4 -i 24 -a 4 -x {5.0 2.2 1 ------- null}
+ -t 0.2152 -s 2 -d 0 -p tcp -e 1040 -c 4 -i 37 -a 4 -x {2.2 5.0 3 ------- null}
+ -t 0.2152 -s 2 -d 0 -p tcp -e 1040 -c 4 -i 38 -a 4 -x {2.2 5.0 4 ------- null}
r -t 0.2152 -s 0 -d 1 -p ack -e 40 -c 1 -i 25 -a 1 -x {3.0 1.1 1 ------- null}
+ -t 0.2152 -s 1 -d 0 -p tcp -e 1040 -c 1 -i 39 -a 1 -x {1.1 3.0 3 ------- null}
+ -t 0.2152 -s 1 -d 0 -p tcp -e 1040 -c 1 -i 40 -a 1 -x {1.1 3.0 4 ------- null}
- -t 0.2152 -s 1 -d 0 -p tcp -e 1040 -c 0 -i 32 -a 0 -x {1.0 2.0 5 ------- null}
h -t 0.2152 -s 1 -d 0 -p tcp -e 1040 -c 0 -i 32 -a 0 -x {1.0 2.0 -1 ------- null}
- -t 0.2152 -s 2 -d 0 -p tcp -e 1040 -c 3 -i 34 -a 3 -x {2.1 3.1 5 ------- null}
h -t 0.2152 -s 2 -d 0 -p tcp -e 1040 -c 3 -i 34 -a 3 -x {2.1 3.1 -1 ------- null}
r -t 0.21688 -s 1 -d 0 -p tcp -e 1040 -c 0 -i 26 -a 0 -x {1.0 2.0 3 ------- null}
+ -t 0.21688 -s 0 -d 2 -p tcp -e 1040 -c 0 -i 26 -a 0 -x {1.0 2.0 3 ------- null}
- -t 0.21688 -s 0 -d 2 -p tcp -e 1040 -c 0 -i 26 -a 0 -x {1.0 2.0 3 ------- null}
h -t 0.21688 -s 0 -d 2 -p tcp -e 1040 -c 0 -i 26 -a 0 -x {1.0 2.0 -1 ------- null}
r -t 0.21688 -s 2 -d 0 -p tcp -e 1040 -c 3 -i 28 -a 3 -x {2.1 3.1 3 ------- null}
+ -t 0.21688 -s 0 -d 3 -p tcp -e 1040 -c 3 -i 28 -a 3 -x {2.1 3.1 3 ------- null}
- -t 0.21688 -s 0 -d 3 -p tcp -e 1040 -c 3 -i 28 -a 3 -x {2.1 3.1 3 ------- null}
h -t 0.21688 -s 0 -d 3 -p tcp -e 1040 -c 3 -i 28 -a 3 -x {2.1 3.1 -1 ------- null}
r -t 0.21952 -s 0 -d 4 -p tcp -e 1040 -c 2 -i 19 -a 2 -x {1.2 4.0 2 ------- null}
+ -t 0.21952 -s 4 -d 0 -p ack -e 40 -c 2 -i 41 -a 2 -x {4.0 1.2 2 ------- null}
- -t 0.21952 -s 4 -d 0 -p ack -e 40 -c 2 -i 41 -a 2 -x {4.0 1.2 2 ------- null}
h -t 0.21952 -s 4 -d 0 -p ack -e 40 -c 2 -i 41 -a 2 -x {4.0 1.2 -1 ------- null}
r -t 0.22152 -s 4 -d 0 -p ack -e 40 -c 2 -i 36 -a 2 -x {4.0 1.2 1 ------- null}
+ -t 0.22152 -s 0 -d 1 -p ack -e 40 -c 2 -i 36 -a 2 -x {4.0 1.2 1 ------- null}
- -t 0.22152 -s 0 -d 1 -p ack -e 40 -c 2 -i 36 -a 2 -x {4.0 1.2 1 ------- null}
h -t 0.22152 -s 0 -d 1 -p ack -e 40 -c 2 -i 36 -a 2 -x {4.0 1.2 -1 ------- null}
r -t 0.22352 -s 0 -d 2 -p ack -e 40 -c 4 -i 30 -a 4 -x {5.0 2.2 2 ------- null}
+ -t 0.22352 -s 2 -d 0 -p tcp -e 1040 -c 4 -i 42 -a 4 -x {2.2 5.0 5 ------- null}
+ -t 0.22352 -s 2 -d 0 -p tcp -e 1040 -c 4 -i 43 -a 4 -x {2.2 5.0 6 ------- null}
r -t 0.22352 -s 0 -d 1 -p ack -e 40 -c 1 -i 31 -a 1 -x {3.0 1.1 2 ------- null}
+ -t 0.22352 -s 1 -d 0 -p tcp -e 1040 -c 1 -i 44 -a 1 -x {1.1 3.0 5 ------- null}
+ -t 0.22352 -s 1 -d 0 -p tcp -e 1040 -c 1 -i 45 -a 1 -x {1.1 3.0 6 ------- null}
- -t 0.22352 -s 1 -d 0 -p tcp -e 1040 -c 0 -i 33 -a 0 -x {1.0 2.0 6 ------- null}
h -t 0.22352 -s 1 -d 0 -p tcp -e 1040 -c 0 -i 33 -a 0 -x {1.0 2.0 -1 ------- null}
- -t 0.22352 -s 2 -d 0 -p tcp -e 1040 -c 3 -i 35 -a 3 -x {2.1 3.1 6 ------- null}
h -t 0.22352 -s 2 -d 0 -p tcp -e 1040 -c 3 -i 35 -a 3 -x {2.1 3.1 -1 ------- null}
r -t 0.2252 -s 1 -d 0 -p tcp -e 1040 -c 0 -i 27 -a 0 -x {1.0 2.0 4 ------- null}
+ -t 0.2252 -s 0 -d 2 -p tcp -e 1040 -c 0 -i 27 -a 0 -x {1.0 2.0 4 ------- null}
r -t 0.2252 -s 2 -d 0 -p tcp -e 1040 -c 3 -i 29 -a 3 -x {2.1 3.1 4 ------- null}
+ -t 0.2252 -s 0 -d 3 -p tcp -e 1040 -c 3 -i 29 -a 3 -x {2.1 3.1 4 ------- null}
- -t 0.2252 -s 0 -d 2 -p tcp -e 1040 -c 0 -i 27 -a 0 -x {1.0 2.0 4 ------- null}
h -t 0.2252 -s 0 -d 2 -p tcp -e 1040 -c 0 -i 27 -a 0 -x {1.0 2.0 -1 ------- null}
- -t 0.2252 -s 0 -d 3 -p tcp -e 1040 -c 3 -i 29 -a 3 -x {2.1 3.1 4 ------- null}
h -t 0.2252 -s 0 -d 3 -p tcp -e 1040 -c 3 -i 29 -a 3 -x {2.1 3.1 -1 ------- null}
r -t 0.22984 -s 4 -d 0 -p ack -e 40 -c 2 -i 41 -a 2 -x {4.0 1.2 2 ------- null}
+ -t 0.22984 -s 0 -d 1 -p ack -e 40 -c 2 -i 41 -a 2 -x {4.0 1.2 2 ------- null}
- -t 0.22984 -s 0 -d 1 -p ack -e 40 -c 2 -i 41 -a 2 -x {4.0 1.2 2 ------- null}
h -t 0.22984 -s 0 -d 1 -p ack -e 40 -c 2 -i 41 -a 2 -x {4.0 1.2 -1 ------- null}
r -t 0.23184 -s 0 -d 1 -p ack -e 40 -c 2 -i 36 -a 2 -x {4.0 1.2 1 ------- null}
+ -t 0.23184 -s 1 -d 0 -p tcp -e 1040 -c 2 -i 46 -a 2 -x {1.2 4.0 3 ------- null}
+ -t 0.23184 -s 1 -d 0 -p tcp -e 1040 -c 2 -i 47 -a 2 -x {1.2 4.0 4 ------- null}
- -t 0.23184 -s 1 -d 0 -p tcp -e 1040 -c 1 -i 39 -a 1 -x {1.1 3.0 3 ------- null}
h -t 0.23184 -s 1 -d 0 -p tcp -e 1040 -c 1 -i 39 -a 1 -x {1.1 3.0 -1 ------- null}
- -t 0.23184 -s 2 -d 0 -p tcp -e 1040 -c 4 -i 37 -a 4 -x {2.2 5.0 3 ------- null}
h -t 0.23184 -s 2 -d 0 -p tcp -e 1040 -c 4 -i 37 -a 4 -x {2.2 5.0 -1 ------- null}
r -t 0.23352 -s 1 -d 0 -p tcp -e 1040 -c 0 -i 32 -a 0 -x {1.0 2.0 5 ------- null}
+ -t 0.23352 -s 0 -d 2 -p tcp -e 1040 -c 0 -i 32 -a 0 -x {1.0 2.0 5 ------- null}
r -t 0.23352 -s 2 -d 0 -p tcp -e 1040 -c 3 -i 34 -a 3 -x {2.1 3.1 5 ------- null}
+ -t 0.23352 -s 0 -d 3 -p tcp -e 1040 -c 3 -i 34 -a 3 -x {2.1 3.1 5 ------- null}
- -t 0.23352 -s 0 -d 2 -p tcp -e 1040 -c 0 -i 32 -a 0 -x {1.0 2.0 5 ------- null}
h -t 0.23352 -s 0 -d 2 -p tcp -e 1040 -c 0 -i 32 -a 0 -x {1.0 2.0 -1 ------- null}
- -t 0.23352 -s 0 -d 3 -p tcp -e 1040 -c 3 -i 34 -a 3 -x {2.1 3.1 5 ------- null}
h -t 0.23352 -s 0 -d 3 -p tcp -e 1040 -c 3 -i 34 -a 3 -x {2.1 3.1 -1 ------- null}
r -t 0.2352 -s 0 -d 2 -p tcp -e 1040 -c 0 -i 26 -a 0 -x {1.0 2.0 3 ------- null}
+ -t 0.2352 -s 2 -d 0 -p ack -e 40 -c 0 -i 48 -a 0 -x {2.0 1.0 3 ------- null}
r -t 0.2352 -s 0 -d 3 -p tcp -e 1040 -c 3 -i 28 -a 3 -x {2.1 3.1 3 ------- null}
+ -t 0.2352 -s 3 -d 0 -p ack -e 40 -c 3 -i 49 -a 3 -x {3.1 2.1 3 ------- null}
- -t 0.2352 -s 3 -d 0 -p ack -e 40 -c 3 -i 49 -a 3 -x {3.1 2.1 3 ------- null}
h -t 0.2352 -s 3 -d 0 -p ack -e 40 -c 3 -i 49 -a 3 -x {3.1 2.1 -1 ------- null}
r -t 0.24016 -s 0 -d 1 -p ack -e 40 -c 2 -i 41 -a 2 -x {4.0 1.2 2 ------- null}
+ -t 0.24016 -s 1 -d 0 -p tcp -e 1040 -c 2 -i 50 -a 2 -x {1.2 4.0 5 ------- null}
+ -t 0.24016 -s 1 -d 0 -p tcp -e 1040 -c 2 -i 51 -a 2 -x {1.2 4.0 6 ------- null}
- -t 0.24016 -s 1 -d 0 -p tcp -e 1040 -c 1 -i 40 -a 1 -x {1.1 3.0 4 ------- null}
h -t 0.24016 -s 1 -d 0 -p tcp -e 1040 -c 1 -i 40 -a 1 -x {1.1 3.0 -1 ------- null}
- -t 0.24016 -s 2 -d 0 -p tcp -e 1040 -c 4 -i 38 -a 4 -x {2.2 5.0 4 ------- null}
h -t 0.24016 -s 2 -d 0 -p tcp -e 1040 -c 4 -i 38 -a 4 -x {2.2 5.0 -1 ------- null}
r -t 0.24184 -s 1 -d 0 -p tcp -e 1040 -c 0 -i 33 -a 0 -x {1.0 2.0 6 ------- null}
+ -t 0.24184 -s 0 -d 2 -p tcp -e 1040 -c 0 -i 33 -a 0 -x {1.0 2.0 6 ------- null}
r -t 0.24184 -s 2 -d 0 -p tcp -e 1040 -c 3 -i 35 -a 3 -x {2.1 3.1 6 ------- null}
+ -t 0.24184 -s 0 -d 3 -p tcp -e 1040 -c 3 -i 35 -a 3 -x {2.1 3.1 6 ------- null}
- -t 0.24184 -s 0 -d 2 -p tcp -e 1040 -c 0 -i 33 -a 0 -x {1.0 2.0 6 ------- null}
h -t 0.24184 -s 0 -d 2 -p tcp -e 1040 -c 0 -i 33 -a 0 -x {1.0 2.0 -1 ------- null}
- -t 0.24184 -s 0 -d 3 -p tcp -e 1040 -c 3 -i 35 -a 3 -x {2.1 3.1 6 ------- null}
h -t 0.24184 -s 0 -d 3 -p tcp -e 1040 -c 3 -i 35 -a 3 -x {2.1 3.1 -1 ------- null}
r -t 0.24352 -s 0 -d 2 -p tcp -e 1040 -c 0 -i 27 -a 0 -x {1.0 2.0 4 ------- null}
+ -t 0.24352 -s 2 -d 0 -p ack -e 40 -c 0 -i 52 -a 0 -x {2.0 1.0 4 ------- null}
r -t 0.24352 -s 0 -d 3 -p tcp -e 1040 -c 3 -i 29 -a 3 -x {2.1 3.1 4 ------- null}
+ -t 0.24352 -s 3 -d 0 -p ack -e 40 -c 3 -i 53 -a 3 -x {3.1 2.1 4 ------- null}
- -t 0.24352 -s 3 -d 0 -p ack -e 40 -c 3 -i 53 -a 3 -x {3.1 2.1 4 ------- null}
h -t 0.24352 -s 3 -d 0 -p ack -e 40 -c 3 -i 53 -a 3 -x {3.1 2.1 -1 ------- null}
r -t 0.24552 -s 3 -d 0 -p ack -e 40 -c 3 -i 49 -a 3 -x {3.1 2.1 3 ------- null}
+ -t 0.24552 -s 0 -d 2 -p ack -e 40 -c 3 -i 49 -a 3 -x {3.1 2.1 3 ------- null}
- -t 0.24848 -s 1 -d 0 -p tcp -e 1040 -c 1 -i 44 -a 1 -x {1.1 3.0 5 ------- null}
h -t 0.24848 -s 1 -d 0 -p tcp -e 1040 -c 1 -i 44 -a 1 -x {1.1 3.0 -1 ------- null}
- -t 0.24848 -s 2 -d 0 -p tcp -e 1040 -c 4 -i 42 -a 4 -x {2.2 5.0 5 ------- null}
h -t 0.24848 -s 2 -d 0 -p tcp -e 1040 -c 4 -i 42 -a 4 -x {2.2 5.0 -1 ------- null}
r -t 0.25016 -s 1 -d 0 -p tcp -e 1040 -c 1 -i 39 -a 1 -x {1.1 3.0 3 ------- null}
+ -t 0.25016 -s 0 -d 3 -p tcp -e 1040 -c 1 -i 39 -a 1 -x {1.1 3.0 3 ------- null}
r -t 0.25016 -s 2 -d 0 -p tcp -e 1040 -c 4 -i 37 -a 4 -x {2.2 5.0 3 ------- null}
+ -t 0.25016 -s 0 -d 5 -p tcp -e 1040 -c 4 -i 37 -a 4 -x {2.2 5.0 3 ------- null}
- -t 0.25016 -s 0 -d 5 -p tcp -e 1040 -c 4 -i 37 -a 4 -x {2.2 5.0 3 ------- null}
h -t 0.25016 -s 0 -d 5 -p tcp -e 1040 -c 4 -i 37 -a 4 -x {2.2 5.0 -1 ------- null}
- -t 0.25016 -s 0 -d 2 -p ack -e 40 -c 3 -i 49 -a 3 -x {3.1 2.1 3 ------- null}
h -t 0.25016 -s 0 -d 2 -p ack -e 40 -c 3 -i 49 -a 3 -x {3.1 2.1 -1 ------- null}
- -t 0.25016 -s 0 -d 3 -p tcp -e 1040 -c 1 -i 39 -a 1 -x {1.1 3.0 3 ------- null}
h -t 0.25016 -s 0 -d 3 -p tcp -e 1040 -c 1 -i 39 -a 1 -x {1.1 3.0 -1 ------- null}
r -t 0.25184 -s 0 -d 2 -p tcp -e 1040 -c 0 -i 32 -a 0 -x {1.0 2.0 5 ------- null}
+ -t 0.25184 -s 2 -d 0 -p ack -e 40 -c 0 -i 54 -a 0 -x {2.0 1.0 5 ------- null}
r -t 0.25184 -s 0 -d 3 -p tcp -e 1040 -c 3 -i 34 -a 3 -x {2.1 3.1 5 ------- null}
+ -t 0.25184 -s 3 -d 0 -p ack -e 40 -c 3 -i 55 -a 3 -x {3.1 2.1 5 ------- null}
- -t 0.25184 -s 3 -d 0 -p ack -e 40 -c 3 -i 55 -a 3 -x {3.1 2.1 5 ------- null}
h -t 0.25184 -s 3 -d 0 -p ack -e 40 -c 3 -i 55 -a 3 -x {3.1 2.1 -1 ------- null}
r -t 0.25384 -s 3 -d 0 -p ack -e 40 -c 3 -i 53 -a 3 -x {3.1 2.1 4 ------- null}
+ -t 0.25384 -s 0 -d 2 -p ack -e 40 -c 3 -i 53 -a 3 -x {3.1 2.1 4 ------- null}
- -t 0.25384 -s 0 -d 2 -p ack -e 40 -c 3 -i 53 -a 3 -x {3.1 2.1 4 ------- null}
h -t 0.25384 -s 0 -d 2 -p ack -e 40 -c 3 -i 53 -a 3 -x {3.1 2.1 -1 ------- null}
- -t 0.2568 -s 1 -d 0 -p tcp -e 1040 -c 1 -i 45 -a 1 -x {1.1 3.0 6 ------- null}
h -t 0.2568 -s 1 -d 0 -p tcp -e 1040 -c 1 -i 45 -a 1 -x {1.1 3.0 -1 ------- null}
- -t 0.2568 -s 2 -d 0 -p tcp -e 1040 -c 4 -i 43 -a 4 -x {2.2 5.0 6 ------- null}
h -t 0.2568 -s 2 -d 0 -p tcp -e 1040 -c 4 -i 43 -a 4 -x {2.2 5.0 -1 ------- null}
r -t 0.25848 -s 1 -d 0 -p tcp -e 1040 -c 1 -i 40 -a 1 -x {1.1 3.0 4 ------- null}
+ -t 0.25848 -s 0 -d 3 -p tcp -e 1040 -c 1 -i 40 -a 1 -x {1.1 3.0 4 ------- null}
r -t 0.25848 -s 2 -d 0 -p tcp -e 1040 -c 4 -i 38 -a 4 -x {2.2 5.0 4 ------- null}
+ -t 0.25848 -s 0 -d 5 -p tcp -e 1040 -c 4 -i 38 -a 4 -x {2.2 5.0 4 ------- null}