V -t * -v 1.0a5 -a 0
A -t * -n 1 -p 0 -o 0x7fffffff -c 30 -a 1
A -t * -h 1 -m 1073741823 -s 0
c -t * -i 4 -n Cyan
c -t * -i 0 -n Red
c -t * -i 1 -n Blue
c -t * -i 2 -n Azure
c -t * -i 3 -n Coral
n -t * -a 4 -s 4 -S UP -v circle -c black -i black
n -t * -a 0 -s 0 -S UP -v circle -c black -i black
n -t * -a 5 -s 5 -S UP -v circle -c black -i black
n -t * -a 1 -s 1 -S UP -v circle -c black -i black
n -t * -a 2 -s 2 -S UP -v circle -c black -i black
n -t * -a 3 -s 3 -S UP -v circle -c black -i black
l -t * -s 0 -d 1 -S UP -r 1000000 -D 0.01 -c black
l -t * -s 1 -d 2 -S UP -r 1000000 -D 0.01 -c black
l -t * -s 2 -d 3 -S UP -r 1000000 -D 0.01 -c black
l -t * -s 3 -d 4 -S UP -r 1000000 -D 0.01 -c black
l -t * -s 4 -d 5 -S UP -r 1000000 -D 0.01 -c black
l -t * -s 5 -d 0 -S UP -r 1000000 -D 0.01 -c black
+ -t 0.1 -s 1 -d 2 -p tcp -e 40 -c 0 -i 0 -a 0 -x {1.0 2.0 0 ------- null}
- -t 0.1 -s 1 -d 2 -p tcp -e 40 -c 0 -i 0 -a 0 -x {1.0 2.0 0 ------- null}
h -t 0.1 -s 1 -d 2 -p tcp -e 40 -c 0 -i 0 -a 0 -x {1.0 2.0 -1 ------- null}
+ -t 0.1 -s 1 -d 2 -p tcp -e 40 -c 1 -i 1 -a 1 -x {1.1 3.0 0 ------- null}
+ -t 0.1 -s 1 -d 2 -p tcp -e 40 -c 2 -i 2 -a 2 -x {1.2 4.0 0 ------- null}
+ -t 0.1 -s 2 -d 3 -p tcp -e 40 -c 3 -i 3 -a 3 -x {2.1 3.1 0 ------- null}
- -t 0.1 -s 2 -d 3 -p tcp -e 40 -c 3 -i 3 -a 3 -x {2.1 3.1 0 ------- null}
h -t 0.1 -s 2 -d 3 -p tcp -e 40 -c 3 -i 3 -a 3 -x {2.1 3.1 -1 ------- null}
+ -t 0.1 -s 2 -d 3 -p tcp -e 40 -c 4 -i 4 -a 4 -x {2.2 4.1 0 ------- null}
- -t 0.10032 -s 1 -d 2 -p tcp -e 40 -c 1 -i 1 -a 1 -x {1.1 3.0 0 ------- null}
h -t 0.10032 -s 1 -d 2 -p tcp -e 40 -c 1 -i 1 -a 1 -x {1.1 3.0 -1 ------- null}
- -t 0.10032 -s 2 -d 3 -p tcp -e 40 -c 4 -i 4 -a 4 -x {2.2 4.1 0 ------- null}
h -t 0.10032 -s 2 -d 3 -p tcp -e 40 -c 4 -i 4 -a 4 -x {2.2 4.1 -1 ------- null}
- -t 0.10064 -s 1 -d 2 -p tcp -e 40 -c 2 -i 2 -a 2 -x {1.2 4.0 0 ------- null}
h -t 0.10064 -s 1 -d 2 -p tcp -e 40 -c 2 -i 2 -a 2 -x {1.2 4.0 -1 ------- null}
r -t 0.11032 -s 1 -d 2 -p tcp -e 40 -c 0 -i 0 -a 0 -x {1.0 2.0 0 ------- null}
+ -t 0.11032 -s 2 -d 1 -p ack -e 40 -c 0 -i 5 -a 0 -x {2.0 1.0 0 ------- null}
- -t 0.11032 -s 2 -d 1 -p ack -e 40 -c 0 -i 5 -a 0 -x {2.0 1.0 0 ------- null}
h -t 0.11032 -s 2 -d 1 -p ack -e 40 -c 0 -i 5 -a 0 -x {2.0 1.0 -1 ------- null}
r -t 0.11032 -s 2 -d 3 -p tcp -e 40 -c 3 -i 3 -a 3 -x {2.1 3.1 0 ------- null}
+ -t 0.11032 -s 3 -d 2 -p ack -e 40 -c 3 -i 6 -a 3 -x {3.1 2.1 0 ------- null}
- -t 0.11032 -s 3 -d 2 -p ack -e 40 -c 3 -i 6 -a 3 -x {3.1 2.1 0 ------- null}
h -t 0.11032 -s 3 -d 2 -p ack -e 40 -c 3 -i 6 -a 3 -x {3.1 2.1 -1 ------- null}
r -t 0.11064 -s 1 -d 2 -p tcp -e 40 -c 1 -i 1 -a 1 -x {1.1 3.0 0 ------- null}
+ -t 0.11064 -s 2 -d 3 -p tcp -e 40 -c 1 -i 1 -a 1 -x {1.1 3.0 0 ------- null}
- -t 0.11064 -s 2 -d 3 -p tcp -e 40 -c 1 -i 1 -a 1 -x {1.1 3.0 0 ------- null}
h -t 0.11064 -s 2 -d 3 -p tcp -e 40 -c 1 -i 1 -a 1 -x {1.1 3.0 -1 ------- null}
r -t 0.11064 -s 2 -d 3 -p tcp -e 40 -c 4 -i 4 -a 4 -x {2.2 4.1 0 ------- null}
+ -t 0.11064 -s 3 -d 4 -p tcp -e 40 -c 4 -i 4 -a 4 -x {2.2 4.1 0 ------- null}
- -t 0.11064 -s 3 -d 4 -p tcp -e 40 -c 4 -i 4 -a 4 -x {2.2 4.1 0 ------- null}
h -t 0.11064 -s 3 -d 4 -p tcp -e 40 -c 4 -i 4 -a 4 -x {2.2 4.1 -1 ------- null}
r -t 0.11096 -s 1 -d 2 -p tcp -e 40 -c 2 -i 2 -a 2 -x {1.2 4.0 0 ------- null}
+ -t 0.11096 -s 2 -d 3 -p tcp -e 40 -c 2 -i 2 -a 2 -x {1.2 4.0 0 ------- null}
- -t 0.11096 -s 2 -d 3 -p tcp -e 40 -c 2 -i 2 -a 2 -x {1.2 4.0 0 ------- null}
h -t 0.11096 -s 2 -d 3 -p tcp -e 40 -c 2 -i 2 -a 2 -x {1.2 4.0 -1 ------- null}
r -t 0.12064 -s 2 -d 1 -p ack -e 40 -c 0 -i 5 -a 0 -x {2.0 1.0 0 ------- null}
+ -t 0.12064 -s 1 -d 2 -p tcp -e 1040 -c 0 -i 7 -a 0 -x {1.0 2.0 1 ------- null}
- -t 0.12064 -s 1 -d 2 -p tcp -e 1040 -c 0 -i 7 -a 0 -x {1.0 2.0 1 ------- null}
h -t 0.12064 -s 1 -d 2 -p tcp -e 1040 -c 0 -i 7 -a 0 -x {1.0 2.0 -1 ------- null}
+ -t 0.12064 -s 1 -d 2 -p tcp -e 1040 -c 0 -i 8 -a 0 -x {1.0 2.0 2 ------- null}
r -t 0.12064 -s 3 -d 2 -p ack -e 40 -c 3 -i 6 -a 3 -x {3.1 2.1 0 ------- null}
+ -t 0.12064 -s 2 -d 3 -p tcp -e 1040 -c 3 -i 9 -a 3 -x {2.1 3.1 1 ------- null}
- -t 0.12064 -s 2 -d 3 -p tcp -e 1040 -c 3 -i 9 -a 3 -x {2.1 3.1 1 ------- null}
h -t 0.12064 -s 2 -d 3 -p tcp -e 1040 -c 3 -i 9 -a 3 -x {2.1 3.1 -1 ------- null}
+ -t 0.12064 -s 2 -d 3 -p tcp -e 1040 -c 3 -i 10 -a 3 -x {2.1 3.1 2 ------- null}
r -t 0.12096 -s 2 -d 3 -p tcp -e 40 -c 1 -i 1 -a 1 -x {1.1 3.0 0 ------- null}
+ -t 0.12096 -s 3 -d 2 -p ack -e 40 -c 1 -i 11 -a 1 -x {3.0 1.1 0 ------- null}
- -t 0.12096 -s 3 -d 2 -p ack -e 40 -c 1 -i 11 -a 1 -x {3.0 1.1 0 ------- null}
h -t 0.12096 -s 3 -d 2 -p ack -e 40 -c 1 -i 11 -a 1 -x {3.0 1.1 -1 ------- null}
r -t 0.12096 -s 3 -d 4 -p tcp -e 40 -c 4 -i 4 -a 4 -x {2.2 4.1 0 ------- null}
+ -t 0.12096 -s 4 -d 3 -p ack -e 40 -c 4 -i 12 -a 4 -x {4.1 2.2 0 ------- null}
- -t 0.12096 -s 4 -d 3 -p ack -e 40 -c 4 -i 12 -a 4 -x {4.1 2.2 0 ------- null}
h -t 0.12096 -s 4 -d 3 -p ack -e 40 -c 4 -i 12 -a 4 -x {4.1 2.2 -1 ------- null}
r -t 0.12128 -s 2 -d 3 -p tcp -e 40 -c 2 -i 2 -a 2 -x {1.2 4.0 0 ------- null}
+ -t 0.12128 -s 3 -d 4 -p tcp -e 40 -c 2 -i 2 -a 2 -x {1.2 4.0 0 ------- null}
- -t 0.12128 -s 3 -d 4 -p tcp -e 40 -c 2 -i 2 -a 2 -x {1.2 4.0 0 ------- null}
h -t 0.12128 -s 3 -d 4 -p tcp -e 40 -c 2 -i 2 -a 2 -x {1.2 4.0 -1 ------- null}
- -t 0.12896 -s 1 -d 2 -p tcp -e 1040 -c 0 -i 8 -a 0 -x {1.0 2.0 2 ------- null}
h -t 0.12896 -s 1 -d 2 -p tcp -e 1040 -c 0 -i 8 -a 0 -x {1.0 2.0 -1 ------- null}
- -t 0.12896 -s 2 -d 3 -p tcp -e 1040 -c 3 -i 10 -a 3 -x {2.1 3.1 2 ------- null}
h -t 0.12896 -s 2 -d 3 -p tcp -e 1040 -c 3 -i 10 -a 3 -x {2.1 3.1 -1 ------- null}
r -t 0.13128 -s 3 -d 2 -p ack -e 40 -c 1 -i 11 -a 1 -x {3.0 1.1 0 ------- null}
+ -t 0.13128 -s 2 -d 1 -p ack -e 40 -c 1 -i 11 -a 1 -x {3.0 1.1 0 ------- null}
- -t 0.13128 -s 2 -d 1 -p ack -e 40 -c 1 -i 11 -a 1 -x {3.0 1.1 0 ------- null}
h -t 0.13128 -s 2 -d 1 -p ack -e 40 -c 1 -i 11 -a 1 -x {3.0 1.1 -1 ------- null}
r -t 0.13128 -s 4 -d 3 -p ack -e 40 -c 4 -i 12 -a 4 -x {4.1 2.2 0 ------- null}
+ -t 0.13128 -s 3 -d 2 -p ack -e 40 -c 4 -i 12 -a 4 -x {4.1 2.2 0 ------- null}
- -t 0.13128 -s 3 -d 2 -p ack -e 40 -c 4 -i 12 -a 4 -x {4.1 2.2 0 ------- null}
h -t 0.13128 -s 3 -d 2 -p ack -e 40 -c 4 -i 12 -a 4 -x {4.1 2.2 -1 ------- null}
r -t 0.1316 -s 3 -d 4 -p tcp -e 40 -c 2 -i 2 -a 2 -x {1.2 4.0 0 ------- null}
+ -t 0.1316 -s 4 -d 5 -p ack -e 40 -c 2 -i 13 -a 2 -x {4.0 1.2 0 ------- null}
- -t 0.1316 -s 4 -d 5 -p ack -e 40 -c 2 -i 13 -a 2 -x {4.0 1.2 0 ------- null}
h -t 0.1316 -s 4 -d 5 -p ack -e 40 -c 2 -i 13 -a 2 -x {4.0 1.2 -1 ------- null}
r -t 0.13896 -s 1 -d 2 -p tcp -e 1040 -c 0 -i 7 -a 0 -x {1.0 2.0 1 ------- null}
+ -t 0.13896 -s 2 -d 1 -p ack -e 40 -c 0 -i 14 -a 0 -x {2.0 1.0 1 ------- null}
- -t 0.13896 -s 2 -d 1 -p ack -e 40 -c 0 -i 14 -a 0 -x {2.0 1.0 1 ------- null}
h -t 0.13896 -s 2 -d 1 -p ack -e 40 -c 0 -i 14 -a 0 -x {2.0 1.0 -1 ------- null}
r -t 0.13896 -s 2 -d 3 -p tcp -e 1040 -c 3 -i 9 -a 3 -x {2.1 3.1 1 ------- null}
+ -t 0.13896 -s 3 -d 2 -p ack -e 40 -c 3 -i 15 -a 3 -x {3.1 2.1 1 ------- null}
- -t 0.13896 -s 3 -d 2 -p ack -e 40 -c 3 -i 15 -a 3 -x {3.1 2.1 1 ------- null}
h -t 0.13896 -s 3 -d 2 -p ack -e 40 -c 3 -i 15 -a 3 -x {3.1 2.1 -1 ------- null}
r -t 0.1416 -s 2 -d 1 -p ack -e 40 -c 1 -i 11 -a 1 -x {3.0 1.1 0 ------- null}
+ -t 0.1416 -s 1 -d 2 -p tcp -e 1040 -c 1 -i 16 -a 1 -x {1.1 3.0 1 ------- null}
- -t 0.1416 -s 1 -d 2 -p tcp -e 1040 -c 1 -i 16 -a 1 -x {1.1 3.0 1 ------- null}
h -t 0.1416 -s 1 -d 2 -p tcp -e 1040 -c 1 -i 16 -a 1 -x {1.1 3.0 -1 ------- null}
+ -t 0.1416 -s 1 -d 2 -p tcp -e 1040 -c 1 -i 17 -a 1 -x {1.1 3.0 2 ------- null}
r -t 0.1416 -s 3 -d 2 -p ack -e 40 -c 4 -i 12 -a 4 -x {4.1 2.2 0 ------- null}
+ -t 0.1416 -s 2 -d 3 -p tcp -e 1040 -c 4 -i 18 -a 4 -x {2.2 4.1 1 ------- null}
- -t 0.1416 -s 2 -d 3 -p tcp -e 1040 -c 4 -i 18 -a 4 -x {2.2 4.1 1 ------- null}
h -t 0.1416 -s 2 -d 3 -p tcp -e 1040 -c 4 -i 18 -a 4 -x {2.2 4.1 -1 ------- null}
+ -t 0.1416 -s 2 -d 3 -p tcp -e 1040 -c 4 -i 19 -a 4 -x {2.2 4.1 2 ------- null}
r -t 0.14192 -s 4 -d 5 -p ack -e 40 -c 2 -i 13 -a 2 -x {4.0 1.2 0 ------- null}
+ -t 0.14192 -s 5 -d 0 -p ack -e 40 -c 2 -i 13 -a 2 -x {4.0 1.2 0 ------- null}
- -t 0.14192 -s 5 -d 0 -p ack -e 40 -c 2 -i 13 -a 2 -x {4.0 1.2 0 ------- null}
h -t 0.14192 -s 5 -d 0 -p ack -e 40 -c 2 -i 13 -a 2 -x {4.0 1.2 -1 ------- null}
r -t 0.14728 -s 1 -d 2 -p tcp -e 1040 -c 0 -i 8 -a 0 -x {1.0 2.0 2 ------- null}
+ -t 0.14728 -s 2 -d 1 -p ack -e 40 -c 0 -i 20 -a 0 -x {2.0 1.0 2 ------- null}
- -t 0.14728 -s 2 -d 1 -p ack -e 40 -c 0 -i 20 -a 0 -x {2.0 1.0 2 ------- null}
h -t 0.14728 -s 2 -d 1 -p ack -e 40 -c 0 -i 20 -a 0 -x {2.0 1.0 -1 ------- null}
r -t 0.14728 -s 2 -d 3 -p tcp -e 1040 -c 3 -i 10 -a 3 -x {2.1 3.1 2 ------- null}
+ -t 0.14728 -s 3 -d 2 -p ack -e 40 -c 3 -i 21 -a 3 -x {3.1 2.1 2 ------- null}
- -t 0.14728 -s 3 -d 2 -p ack -e 40 -c 3 -i 21 -a 3 -x {3.1 2.1 2 ------- null}
h -t 0.14728 -s 3 -d 2 -p ack -e 40 -c 3 -i 21 -a 3 -x {3.1 2.1 -1 ------- null}
r -t 0.14928 -s 2 -d 1 -p ack -e 40 -c 0 -i 14 -a 0 -x {2.0 1.0 1 ------- null}
+ -t 0.14928 -s 1 -d 2 -p tcp -e 1040 -c 0 -i 22 -a 0 -x {1.0 2.0 3 ------- null}
+ -t 0.14928 -s 1 -d 2 -p tcp -e 1040 -c 0 -i 23 -a 0 -x {1.0 2.0 4 ------- null}
r -t 0.14928 -s 3 -d 2 -p ack -e 40 -c 3 -i 15 -a 3 -x {3.1 2.1 1 ------- null}
+ -t 0.14928 -s 2 -d 3 -p tcp -e 1040 -c 3 -i 24 -a 3 -x {2.1 3.1 3 ------- null}
+ -t 0.14928 -s 2 -d 3 -p tcp -e 1040 -c 3 -i 25 -a 3 -x {2.1 3.1 4 ------- null}
- -t 0.14992 -s 1 -d 2 -p tcp -e 1040 -c 1 -i 17 -a 1 -x {1.1 3.0 2 ------- null}
h -t 0.14992 -s 1 -d 2 -p tcp -e 1040 -c 1 -i 17 -a 1 -x {1.1 3.0 -1 ------- null}
- -t 0.14992 -s 2 -d 3 -p tcp -e 1040 -c 4 -i 19 -a 4 -x {2.2 4.1 2 ------- null}
h -t 0.14992 -s 2 -d 3 -p tcp -e 1040 -c 4 -i 19 -a 4 -x {2.2 4.1 -1 ------- null}
r -t 0.15224 -s 5 -d 0 -p ack -e 40 -c 2 -i 13 -a 2 -x {4.0 1.2 0 ------- null}
+ -t 0.15224 -s 0 -d 1 -p ack -e 40 -c 2 -i 13 -a 2 -x {4.0 1.2 0 ------- null}
- -t 0.15224 -s 0 -d 1 -p ack -e 40 -c 2 -i 13 -a 2 -x {4.0 1.2 0 ------- null}
h -t 0.15224 -s 0 -d 1 -p ack -e 40 -c 2 -i 13 -a 2 -x {4.0 1.2 -1 ------- null}
r -t 0.1576 -s 2 -d 1 -p ack -e 40 -c 0 -i 20 -a 0 -x {2.0 1.0 2 ------- null}
+ -t 0.1576 -s 1 -d 2 -p tcp -e 1040 -c 0 -i 26 -a 0 -x {1.0 2.0 5 ------- null}
+ -t 0.1576 -s 1 -d 2 -p tcp -e 1040 -c 0 -i 27 -a 0 -x {1.0 2.0 6 ------- null}
r -t 0.1576 -s 3 -d 2 -p ack -e 40 -c 3 -i 21 -a 3 -x {3.1 2.1 2 ------- null}
+ -t 0.1576 -s 2 -d 3 -p tcp -e 1040 -c 3 -i 28 -a 3 -x {2.1 3.1 5 ------- null}
+ -t 0.1576 -s 2 -d 3 -p tcp -e 1040 -c 3 -i 29 -a 3 -x {2.1 3.1 6 ------- null}
- -t 0.15824 -s 1 -d 2 -p tcp -e 1040 -c 0 -i 22 -a 0 -x {1.0 2.0 3 ------- null}
h -t 0.15824 -s 1 -d 2 -p tcp -e 1040 -c 0 -i 22 -a 0 -x {1.0 2.0 -1 ------- null}
- -t 0.15824 -s 2 -d 3 -p tcp -e 1040 -c 3 -i 24 -a 3 -x {2.1 3.1 3 ------- null}
h -t 0.15824 -s 2 -d 3 -p tcp -e 1040 -c 3 -i 24 -a 3 -x {2.1 3.1 -1 ------- null}
r -t 0.15992 -s 1 -d 2 -p tcp -e 1040 -c 1 -i 16 -a 1 -x {1.1 3.0 1 ------- null}
+ -t 0.15992 -s 2 -d 3 -p tcp -e 1040 -c 1 -i 16 -a 1 -x {1.1 3.0 1 ------- null}
r -t 0.15992 -s 2 -d 3 -p tcp -e 1040 -c 4 -i 18 -a 4 -x {2.2 4.1 1 ------- null}
+ -t 0.15992 -s 3 -d 4 -p tcp -e 1040 -c 4 -i 18 -a 4 -x {2.2 4.1 1 ------- null}
- -t 0.15992 -s 3 -d 4 -p tcp -e 1040 -c 4 -i 18 -a 4 -x {2.2 4.1 1 ------- null}
h -t 0.15992 -s 3 -d 4 -p tcp -e 1040 -c 4 -i 18 -a 4 -x {2.2 4.1 -1 ------- null}
r -t 0.16256 -s 0 -d 1 -p ack -e 40 -c 2 -i 13 -a 2 -x {4.0 1.2 0 ------- null}
+ -t 0.16256 -s 1 -d 2 -p tcp -e 1040 -c 2 -i 30 -a 2 -x {1.2 4.0 1 ------- null}
+ -t 0.16256 -s 1 -d 2 -p tcp -e 1040 -c 2 -i 31 -a 2 -x {1.2 4.0 2 ------- null}
- -t 0.16656 -s 1 -d 2 -p tcp -e 1040 -c 0 -i 23 -a 0 -x {1.0 2.0 4 ------- null}
h -t 0.16656 -s 1 -d 2 -p tcp -e 1040 -c 0 -i 23 -a 0 -x {1.0 2.0 -1 ------- null}
- -t 0.16656 -s 2 -d 3 -p tcp -e 1040 -c 3 -i 25 -a 3 -x {2.1 3.1 4 ------- null}
h -t 0.16656 -s 2 -d 3 -p tcp -e 1040 -c 3 -i 25 -a 3 -x {2.1 3.1 -1 ------- null}
r -t 0.16824 -s 1 -d 2 -p tcp -e 1040 -c 1 -i 17 -a 1 -x {1.1 3.0 2 ------- null}
+ -t 0.16824 -s 2 -d 3 -p tcp -e 1040 -c 1 -i 17 -a 1 -x {1.1 3.0 2 ------- null}
r -t 0.16824 -s 2 -d 3 -p tcp -e 1040 -c 4 -i 19 -a 4 -x {2.2 4.1 2 ------- null}
+ -t 0.16824 -s 3 -d 4 -p tcp -e 1040 -c 4 -i 19 -a 4 -x {2.2 4.1 2 ------- null}
- -t 0.16824 -s 3 -d 4 -p tcp -e 1040 -c 4 -i 19 -a 4 -x {2.2 4.1 2 ------- null}
h -t 0.16824 -s 3 -d 4 -p tcp -e 1040 -c 4 -i 19 -a 4 -x {2.2 4.1 -1 ------- null}
- -t 0.17488 -s 1 -d 2 -p tcp -e 1040 -c 0 -i 26 -a 0 -x {1.0 2.0 5 ------- null}
h -t 0.17488 -s 1 -d 2 -p tcp -e 1040 -c 0 -i 26 -a 0 -x {1.0 2.0 -1 ------- null}
- -t 0.17488 -s 2 -d 3 -p tcp -e 1040 -c 3 -i 28 -a 3 -x {2.1 3.1 5 ------- null}
h -t 0.17488 -s 2 -d 3 -p tcp -e 1040 -c 3 -i 28 -a 3 -x {2.1 3.1 -1 ------- null}
r -t 0.17656 -s 1 -d 2 -p tcp -e 1040 -c 0 -i 22 -a 0 -x {1.0 2.0 3 ------- null}
+ -t 0.17656 -s 2 -d 1 -p ack -e 40 -c 0 -i 32 -a 0 -x {2.0 1.0 3 ------- null}
- -t 0.17656 -s 2 -d 1 -p ack -e 40 -c 0 -i 32 -a 0 -x {2.0 1.0 3 ------- null}
h -t 0.17656 -s 2 -d 1 -p ack -e 40 -c 0 -i 32 -a 0 -x {2.0 1.0 -1 ------- null}
r -t 0.17656 -s 2 -d 3 -p tcp -e 1040 -c 3 -i 24 -a 3 -x {2.1 3.1 3 ------- null}
+ -t 0.17656 -s 3 -d 2 -p ack -e 40 -c 3 -i 33 -a 3 -x {3.1 2.1 3 ------- null}
- -t 0.17656 -s 3 -d 2 -p ack -e 40 -c 3 -i 33 -a 3 -x {3.1 2.1 3 ------- null}
h -t 0.17656 -s 3 -d 2 -p ack -e 40 -c 3 -i 33 -a 3 -x {3.1 2.1 -1 ------- null}
r -t 0.17824 -s 3 -d 4 -p tcp -e 1040 -c 4 -i 18 -a 4 -x {2.2 4.1 1 ------- null}
+ -t 0.17824 -s 4 -d 3 -p ack -e 40 -c 4 -i 34 -a 4 -x {4.1 2.2 1 ------- null}
- -t 0.17824 -s 4 -d 3 -p ack -e 40 -c 4 -i 34 -a 4 -x {4.1 2.2 1 ------- null}
h -t 0.17824 -s 4 -d 3 -p ack -e 40 -c 4 -i 34 -a 4 -x {4.1 2.2 -1 ------- null}
- -t 0.1832 -s 1 -d 2 -p tcp -e 1040 -c 0 -i 27 -a 0 -x {1.0 2.0 6 ------- null}
h -t 0.1832 -s 1 -d 2 -p tcp -e 1040 -c 0 -i 27 -a 0 -x {1.0 2.0 -1 ------- null}
- -t 0.1832 -s 2 -d 3 -p tcp -e 1040 -c 3 -i 29 -a 3 -x {2.1 3.1 6 ------- null}
h -t 0.1832 -s 2 -d 3 -p tcp -e 1040 -c 3 -i 29 -a 3 -x {2.1 3.1 -1 ------- null}
r -t 0.18488 -s 1 -d 2 -p tcp -e 1040 -c 0 -i 23 -a 0 -x {1.0 2.0 4 ------- null}
+ -t 0.18488 -s 2 -d 1 -p ack -e 40 -c 0 -i 35 -a 0 -x {2.0 1.0 4 ------- null}
- -t 0.18488 -s 2 -d 1 -p ack -e 40 -c 0 -i 35 -a 0 -x {2.0 1.0 4 ------- null}
h -t 0.18488 -s 2 -d 1 -p ack -e 40 -c 0 -i 35 -a 0 -x {2.0 1.0 -1 ------- null}
r -t 0.18488 -s 2 -d 3 -p tcp -e 1040 -c 3 -i 25 -a 3 -x {2.1 3.1 4 ------- null}
+ -t 0.18488 -s 3 -d 2 -p ack -e 40 -c 3 -i 36 -a 3 -x {3.1 2.1 4 ------- null}
- -t 0.18488 -s 3 -d 2 -p ack -e 40 -c 3 -i 36 -a 3 -x {3.1 2.1 4 ------- null}
h -t 0.18488 -s 3 -d 2 -p ack -e 40 -c 3 -i 36 -a 3 -x {3.1 2.1 -1 ------- null}
r -t 0.18656 -s 3 -d 4 -p tcp -e 1040 -c 4 -i 19 -a 4 -x {2.2 4.1 2 ------- null}
+ -t 0.18656 -s 4 -d 3 -p ack -e 40 -c 4 -i 37 -a 4 -x {4.1 2.2 2 ------- null}
- -t 0.18656 -s 4 -d 3 -p ack -e 40 -c 4 -i 37 -a 4 -x {4.1 2.2 2 ------- null}
h -t 0.18656 -s 4 -d 3 -p ack -e 40 -c 4 -i 37 -a 4 -x {4.1 2.2 -1 ------- null}
r -t 0.18688 -s 2 -d 1 -p ack -e 40 -c 0 -i 32 -a 0 -x {2.0 1.0 3 ------- null}
+ -t 0.18688 -s 1 -d 2 -p tcp -e 1040 -c 0 -i 38 -a 0 -x {1.0 2.0 7 ------- null}
+ -t 0.18688 -s 1 -d 2 -p tcp -e 1040 -c 0 -i 39 -a 0 -x {1.0 2.0 8 ------- null}
r -t 0.18688 -s 3 -d 2 -p ack -e 40 -c 3 -i 33 -a 3 -x {3.1 2.1 3 ------- null}
+ -t 0.18688 -s 2 -d 3 -p tcp -e 1040 -c 3 -i 40 -a 3 -x {2.1 3.1 7 ------- null}
+ -t 0.18688 -s 2 -d 3 -p tcp -e 1040 -c 3 -i 41 -a 3 -x {2.1 3.1 8 ------- null}
r -t 0.18856 -s 4 -d 3 -p ack -e 40 -c 4 -i 34 -a 4 -x {4.1 2.2 1 ------- null}
+ -t 0.18856 -s 3 -d 2 -p ack -e 40 -c 4 -i 34 -a 4 -x {4.1 2.2 1 ------- null}
- -t 0.18856 -s 3 -d 2 -p ack -e 40 -c 4 -i 34 -a 4 -x {4.1 2.2 1 ------- null}
h -t 0.18856 -s 3 -d 2 -p ack -e 40 -c 4 -i 34 -a 4 -x {4.1 2.2 -1 ------- null}
- -t 0.19152 -s 1 -d 2 -p tcp -e 1040 -c 2 -i 30 -a 2 -x {1.2 4.0 1 ------- null}
h -t 0.19152 -s 1 -d 2 -p tcp -e 1040 -c 2 -i 30 -a 2 -x {1.2 4.0 -1 ------- null}
- -t 0.19152 -s 2 -d 3 -p tcp -e 1040 -c 1 -i 16 -a 1 -x {1.1 3.0 1 ------- null}
h -t 0.19152 -s 2 -d 3 -p tcp -e 1040 -c 1 -i 16 -a 1 -x {1.1 3.0 -1 ------- null}
r -t 0.1932 -s 1 -d 2 -p tcp -e 1040 -c 0 -i 26 -a 0 -x {1.0 2.0 5 ------- null}
+ -t 0.1932 -s 2 -d 1 -p ack -e 40 -c 0 -i 42 -a 0 -x {2.0 1.0 5 ------- null}
- -t 0.1932 -s 2 -d 1 -p ack -e 40 -c 0 -i 42 -a 0 -x {2.0 1.0 5 ------- null}
h -t 0.1932 -s 2 -d 1 -p ack -e 40 -c 0 -i 42 -a 0 -x {2.0 1.0 -1 ------- null}
r -t 0.1932 -s 2 -d 3 -p tcp -e 1040 -c 3 -i 28 -a 3 -x {2.1 3.1 5 ------- null}
+ -t 0.1932 -s 3 -d 2 -p ack -e 40 -c 3 -i 43 -a 3 -x {3.1 2.1 5 ------- null}
- -t 0.1932 -s 3 -d 2 -p ack -e 40 -c 3 -i 43 -a 3 -x {3.1 2.1 5 ------- null}
h -t 0.1932 -s 3 -d 2 -p ack -e 40 -c 3 -i 43 -a 3 -x {3.1 2.1 -1 ------- null}
r -t 0.1952 -s 2 -d 1 -p ack -e 40 -c 0 -i 35 -a 0 -x {2.0 1.0 4 ------- null}
+ -t 0.1952 -s 1 -d 2 -p tcp -e 1040 -c 0 -i 44 -a 0 -x {1.0 2.0 9 ------- null}
+ -t 0.1952 -s 1 -d 2 -p tcp -e 1040 -c 0 -i 45 -a 0 -x {1.0 2.0 10 ------- null}
r -t 0.1952 -s 3 -d 2 -p ack -e 40 -c 3 -i 36 -a 3 -x {3.1 2.1 4 ------- null}
+ -t 0.1952 -s 2 -d 3 -p tcp -e 1040 -c 3 -i 46 -a 3 -x {2.1 3.1 9 ------- null}
+ -t 0.1952 -s 2 -d 3 -p tcp -e 1040 -c 3 -i 47 -a 3 -x {2.1 3.1 10 ------- null}
r -t 0.19688 -s 4 -d 3 -p ack -e 40 -c 4 -i 37 -a 4 -x {4.1 2.2 2 ------- null}
+ -t 0.19688 -s 3 -d 2 -p ack -e 40 -c 4 -i 37 -a 4 -x {4.1 2.2 2 ------- null}
- -t 0.19688 -s 3 -d 2 -p ack -e 40 -c 4 -i 37 -a 4 -x {4.1 2.2 2 ------- null}
h -t 0.19688 -s 3 -d 2 -p ack -e 40 -c 4 -i 37 -a 4 -x {4.1 2.2 -1 ------- null}
r -t 0.19888 -s 3 -d 2 -p ack -e 40 -c 4 -i 34 -a 4 -x {4.1 2.2 1 ------- null}
+ -t 0.19888 -s 2 -d 3 -p tcp -e 1040 -c 4 -i 48 -a 4 -x {2.2 4.1 3 ------- null}
+ -t 0.19888 -s 2 -d 3 -p tcp -e 1040 -c 4 -i 49 -a 4 -x {2.2 4.1 4 ------- null}
- -t 0.19984 -s 1 -d 2 -p tcp -e 1040 -c 2 -i 31 -a 2 -x {1.2 4.0 2 ------- null}
h -t 0.19984 -s 1 -d 2 -p tcp -e 1040 -c 2 -i 31 -a 2 -x {1.2 4.0 -1 ------- null}
- -t 0.19984 -s 2 -d 3 -p tcp -e 1040 -c 1 -i 17 -a 1 -x {1.1 3.0 2 ------- null}
h -t 0.19984 -s 2 -d 3 -p tcp -e 1040 -c 1 -i 17 -a 1 -x {1.1 3.0 -1 ------- null}
r -t 0.20152 -s 1 -d 2 -p tcp -e 1040 -c 0 -i 27 -a 0 -x {1.0 2.0 6 ------- null}
+ -t 0.20152 -s 2 -d 1 -p ack -e 40 -c 0 -i 50 -a 0 -x {2.0 1.0 6 ------- null}
- -t 0.20152 -s 2 -d 1 -p ack -e 40 -c 0 -i 50 -a 0 -x {2.0 1.0 6 ------- null}
h -t 0.20152 -s 2 -d 1 -p ack -e 40 -c 0 -i 50 -a 0 -x {2.0 1.0 -1 ------- null}
r -t 0.20152 -s 2 -d 3 -p tcp -e 1040 -c 3 -i 29 -a 3 -x {2.1 3.1 6 ------- null}
+ -t 0.20152 -s 3 -d 2 -p ack -e 40 -c 3 -i 51 -a 3 -x {3.1 2.1 6 ------- null}
- -t 0.20152 -s 3 -d 2 -p ack -e 40 -c 3 -i 51 -a 3 -x {3.1 2.1 6 ------- null}
h -t 0.20152 -s 3 -d 2 -p ack -e 40 -c 3 -i 51 -a 3 -x {3.1 2.1 -1 ------- null}
r -t 0.20352 -s 2 -d 1 -p ack -e 40 -c 0 -i 42 -a 0 -x {2.0 1.0 5 ------- null}
+ -t 0.20352 -s 1 -d 2 -p tcp -e 1040 -c 0 -i 52 -a 0 -x {1.0 2.0 11 ------- null}
+ -t 0.20352 -s 1 -d 2 -p tcp -e 1040 -c 0 -i 53 -a 0 -x {1.0 2.0 12 ------- null}
r -t 0.20352 -s 3 -d 2 -p ack -e 40 -c 3 -i 43 -a 3 -x {3.1 2.1 5 ------- null}
+ -t 0.20352 -s 2 -d 3 -p tcp -e 1040 -c 3 -i 54 -a 3 -x {2.1 3.1 11 ------- null}
+ -t 0.20352 -s 2 -d 3 -p tcp -e 1040 -c 3 -i 55 -a 3 -x {2.1 3.1 12 ------- null}
r -t 0.2072 -s 3 -d 2 -p ack -e 40 -c 4 -i 37 -a 4 -x {4.1 2.2 2 ------- null}
+ -t 0.2072 -s 2 -d 3 -p tcp -e 1040 -c 4 -i 56 -a 4 -x {2.2 4.1 5 ------- null}
+ -t 0.2072 -s 2 -d 3 -p tcp -e 1040 -c 4 -i 57 -a 4 -x {2.2 4.1 6 ------- null}
- -t 0.20816 -s 1 -d 2 -p tcp -e 1040 -c 0 -i 38 -a 0 -x {1.0 2.0 7 ------- null}
h -t 0.20816 -s 1 -d 2 -p tcp -e 1040 -c 0 -i 38 -a 0 -x {1.0 2.0 -1 ------- null}
- -t 0.20816 -s 2 -d 3 -p tcp -e 1040 -c 3 -i 40 -a 3 -x {2.1 3.1 7 ------- null}
h -t 0.20816 -s 2 -d 3 -p tcp -e 1040 -c 3 -i 40 -a 3 -x {2.1 3.1 -1 ------- null}
r -t 0.20984 -s 1 -d 2 -p tcp -e 1040 -c 2 -i 30 -a 2 -x {1.2 4.0 1 ------- null}
+ -t 0.20984 -s 2 -d 3 -p tcp -e 1040 -c 2 -i 30 -a 2 -x {1.2 4.0 1 ------- null}
r -t 0.20984 -s 2 -d 3 -p tcp -e 1040 -c 1 -i 16 -a 1 -x {1.1 3.0 1 ------- null}
+ -t 0.20984 -s 3 -d 2 -p ack -e 40 -c 1 -i 58 -a 1 -x {3.0 1.1 1 ------- null}
- -t 0.20984 -s 3 -d 2 -p ack -e 40 -c 1 -i 58 -a 1 -x {3.0 1.1 1 ------- null}
h -t 0.20984 -s 3 -d 2 -p ack -e 40 -c 1 -i 58 -a 1 -x {3.0 1.1 -1 ------- null}
r -t 0.21184 -s 2 -d 1 -p ack -e 40 -c 0 -i 50 -a 0 -x {2.0 1.0 6 ------- null}
+ -t 0.21184 -s 1 -d 2 -p tcp -e 1040 -c 0 -i 59 -a 0 -x {1.0 2.0 13 ------- null}
+ -t 0.21184 -s 1 -d 2 -p tcp -e 1040 -c 0 -i 60 -a 0 -x {1.0 2.0 14 ------- null}
r -t 0.21184 -s 3 -d 2 -p ack -e 40 -c 3 -i 51 -a 3 -x {3.1 2.1 6 ------- null}
+ -t 0.21184 -s 2 -d 3 -p tcp -e 1040 -c 3 -i 61 -a 3 -x {2.1 3.1 13 ------- null}
+ -t 0.21184 -s 2 -d 3 -p tcp -e 1040 -c 3 -i 62 -a 3 -x {2.1 3.1 14 ------- null}
- -t 0.21648 -s 1 -d 2 -p tcp -e 1040 -c 0 -i 39 -a 0 -x {1.0 2.0 8 ------- null}
h -t 0.21648 -s 1 -d 2 -p tcp -e 1040 -c 0 -i 39 -a 0 -x {1.0 2.0 -1 ------- null}
- -t 0.21648 -s 2 -d 3 -p tcp -e 1040 -c 3 -i 41 -a 3 -x {2.1 3.1 8 ------- null}
h -t 0.21648 -s 2 -d 3 -p tcp -e 1040 -c 3 -i 41 -a 3 -x {2.1 3.1 -1 ------- null}
r -t 0.21816 -s 1 -d 2 -p tcp -e 1040 -c 2 -i 31 -a 2 -x {1.2 4.0 2 ------- null}
+ -t 0.21816 -s 2 -d 3 -p tcp -e 1040 -c 2 -i 31 -a 2 -x {1.2 4.0 2 ------- null}
r -t 0.21816 -s 2 -d 3 -p tcp -e 1040 -c 1 -i 17 -a 1 -x {1.1 3.0 2 ------- null}
+ -t 0.21816 -s 3 -d 2 -p ack -e 40 -c 1 -i 63 -a 1 -x {3.0 1.1 2 ------- null}
- -t 0.21816 -s 3 -d 2 -p ack -e 40 -c 1 -i 63 -a 1 -x {3.0 1.1 2 ------- null}
h -t 0.21816 -s 3 -d 2 -p ack -e 40 -c 1 -i 63 -a 1 -x {3.0 1.1 -1 ------- null}
r -t 0.22016 -s 3 -d 2 -p ack -e 40 -c 1 -i 58 -a 1 -x {3.0 1.1 1 ------- null}
+ -t 0.22016 -s 2 -d 1 -p ack -e 40 -c 1 -i 58 -a 1 -x {3.0 1.1 1 ------- null}
- -t 0.22016 -s 2 -d 1 -p ack -e 40 -c 1 -i 58 -a 1 -x {3.0 1.1 1 ------- null}
h -t 0.22016 -s 2 -d 1 -p ack -e 40 -c 1 -i 58 -a 1 -x {3.0 1.1 -1 ------- null}
- -t 0.2248 -s 1 -d 2 -p tcp -e 1040 -c 0 -i 44 -a 0 -x {1.0 2.0 9 ------- null}
h -t 0.2248 -s 1 -d 2 -p tcp -e 1040 -c 0 -i 44 -a 0 -x {1.0 2.0 -1 ------- null}
- -t 0.2248 -s 2 -d 3 -p tcp -e 1040 -c 3 -i 46 -a 3 -x {2.1 3.1 9 ------- null}
h -t 0.2248 -s 2 -d 3 -p tcp -e 1040 -c 3 -i 46 -a 3 -x {2.1 3.1 -1 ------- null}
r -t 0.22648 -s 1 -d 2 -p tcp -e 1040 -c 0 -i 38 -a 0 -x {1.0 2.0 7 ------- null}
+ -t 0.22648 -s 2 -d 1 -p ack -e 40 -c 0 -i 64 -a 0 -x {2.0 1.0 7 ------- null}
- -t 0.22648 -s 2 -d 1 -p ack -e 40 -c 0 -i 64 -a 0 -x {2.0 1.0 7 ------- null}
h -t 0.22648 -s 2 -d 1 -p ack -e 40 -c 0 -i 64 -a 0 -x {2.0 1.0 -1 ------- null}
r -t 0.22648 -s 2 -d 3 -p tcp -e 1040 -c 3 -i 40 -a 3 -x {2.1 3.1 7 ------- null}
+ -t 0.22648 -s 3 -d 2 -p ack -e 40 -c 3 -i 65 -a 3 -x {3.1 2.1 7 ------- null}
- -t 0.22648 -s 3 -d 2 -p ack -e 40 -c 3 -i 65 -a 3 -x {3.1 2.1 7 ------- null}
h -t 0.22648 -s 3 -d 2 -p ack -e 40 -c 3 -i 65 -a 3 -x {3.1 2.1 -1 ------- null}
r -t 0.22848 -s 3 -d 2 -p ack -e 40 -c 1 -i 63 -a 1 -x {3.0 1.1 2 ------- null}
+ -t 0.22848 -s 2 -d 1 -p ack -e 40 -c 1 -i 63 -a 1 -x {3.0 1.1 2 ------- null}
- -t 0.22848 -s 2 -d 1 -p ack -e 40 -c 1 -i 63 -a 1 -x {3.0 1.1 2 ------- null}
h -t 0.22848 -s 2 -d 1 -p ack -e 40 -c 1 -i 63 -a 1 -x {3.0 1.1 -1 ------- null}
r -t 0.23048 -s 2 -d 1 -p ack -e 40 -c 1 -i 58 -a 1 -x {3.0 1.1 1 ------- null}
+ -t 0.23048 -s 1 -d 2 -p tcp -e 1040 -c 1 -i 66 -a 1 -x {1.1 3.0 3 ------- null}
+ -t 0.23048 -s 1 -d 2 -p tcp -e 1040 -c 1 -i 67 -a 1 -x {1.1 3.0 4 ------- null}
- -t 0.23312 -s 1 -d 2 -p tcp -e 1040 -c 0 -i 45 -a 0 -x {1.0 2.0 10 ------- null}
h -t 0.23312 -s 1 -d 2 -p tcp -e 1040 -c 0 -i 45 -a 0 -x {1.0 2.0 -1 ------- null}
- -t 0.23312 -s 2 -d 3 -p tcp -e 1040 -c 3 -i 47 -a 3 -x {2.1 3.1 10 ------- null}
h -t 0.23312 -s 2 -d 3 -p tcp -e 1040 -c 3 -i 47 -a 3 -x {2.1 3.1 -1 ------- null}
r -t 0.2348 -s 1 -d 2 -p tcp -e 1040 -c 0 -i 39 -a 0 -x {1.0 2.0 8 ------- null}
+ -t 0.2348 -s 2 -d 1 -p ack -e 40 -c 0 -i 68 -a 0 -x {2.0 1.0 8 ------- null}
- -t 0.2348 -s 2 -d 1 -p ack -e 40 -c 0 -i 68 -a 0 -x {2.0 1.0 8 ------- null}
h -t 0.2348 -s 2 -d 1 -p ack -e 40 -c 0 -i 68 -a 0 -x {2.0 1.0 -1 ------- null}
r -t 0.2348 -s 2 -d 3 -p tcp -e 1040 -c 3 -i 41 -a 3 -x {2.1 3.1 8 ------- null}
+ -t 0.2348 -s 3 -d 2 -p ack -e 40 -c 3 -i 69 -a 3 -x {3.1 2.1 8 ------- null}
- -t 0.2348 -s 3 -d 2 -p ack -e 40 -c 3 -i 69 -a 3 -x {3.1 2.1 8 ------- null}
h -t 0.2348 -s 3 -d 2 -p ack -e 40 -c 3 -i 69 -a 3 -x {3.1 2.1 -1 ------- null}
r -t 0.2368 -s 2 -d 1 -p ack -e 40 -c 0 -i 64 -a 0 -x {2.0 1.0 7 ------- null}
+ -t 0.2368 -s 1 -d 2 -p tcp -e 1040 -c 0 -i 70 -a 0 -x {1.0 2.0 15 ------- null}
+ -t 0.2368 -s 1 -d 2 -p tcp -e 1040 -c 0 -i 71 -a 0 -x {1.0 2.0 16 ------- null}
r -t 0.2368 -s 3 -d 2 -p ack -e 40 -c 3 -i 65 -a 3 -x {3.1 2.1 7 ------- null}
+ -t 0.2368 -s 2 -d 3 -p tcp -e 1040 -c 3 -i 72 -a 3 -x {2.1 3.1 15 ------- null}
+ -t 0.2368 -s 2 -d 3 -p tcp -e 1040 -c 3 -i 73 -a 3 -x {2.1 3.1 16 ------- null}
r -t 0.2388 -s 2 -d 1 -p ack -e 40 -c 1 -i 63 -a 1 -x {3.0 1.1 2 ------- null}
+ -t 0.2388 -s 1 -d 2 -p tcp -e 1040 -c 1 -i 74 -a 1 -x {1.1 3.0 5 ------- null}
+ -t 0.2388 -s 1 -d 2 -p tcp -e 1040 -c 1 -i 75 -a 1 -x {1.1 3.0 6 ------- null}
- -t 0.24144 -s 1 -d 2 -p tcp -e 1040 -c 0 -i 52 -a 0 -x {1.0 2.0 11 ------- null}
h -t 0.24144 -s 1 -d 2 -p tcp -e 1040 -c 0 -i 52 -a 0 -x {1.0 2.0 -1 ------- null}
- -t 0.24144 -s 2 -d 3 -p tcp -e 1040 -c 4 -i 48 -a 4 -x {2.2 4.1 3 ------- null}
h -t 0.24144 -s 2 -d 3 -p tcp -e 1040 -c 4 -i 48 -a 4 -x {2.2 4.1 -1 ------- null}
r -t 0.24312 -s 1 -d 2 -p tcp -e 1040 -c 0 -i 44 -a 0 -x {1.0 2.0 9 ------- null}
+ -t 0.24312 -s 2 -d 1 -p ack -e 40 -c 0 -i 76 -a 0 -x {2.0 1.0 9 ------- null}
- -t 0.24312 -s 2 -d 1 -p ack -e 40 -c 0 -i 76 -a 0 -x {2.0 1.0 9 ------- null}
h -t 0.24312 -s 2 -d 1 -p ack -e 40 -c 0 -i 76 -a 0 -x {2.0 1.0 -1 ------- null}
r -t 0.24312 -s 2 -d 3 -p tcp -e 1040 -c 3 -i 46 -a 3 -x {2.1 3.1 9 ------- null}
+ -t 0.24312 -s 3 -d 2 -p ack -e 40 -c 3 -i 77 -a 3 -x {3.1 2.1 9 ------- null}
- -t 0.24312 -s 3 -d 2 -p ack -e 40 -c 3 -i 77 -a 3 -x {3.1 2.1 9 ------- null}
h -t 0.24312 -s 3 -d 2 -p ack -e 40 -c 3 -i 77 -a 3 -x {3.1 2.1 -1 ------- null}
r -t 0.24512 -s 2 -d 1 -p ack -e 40 -c 0 -i 68 -a 0 -x {2.0 1.0 8 ------- null}
+ -t 0.24512 -s 1 -d 2 -p tcp -e 1040 -c 0 -i 78 -a 0 -x {1.0 2.0 17 ------- null}
+ -t 0.24512 -s 1 -d 2 -p tcp -e 1040 -c 0 -i 79 -a 0 -x {1.0 2.0 18 ------- null}
r -t 0.24512 -s 3 -d 2 -p ack -e 40 -c 3 -i 69 -a 3 -x {3.1 2.1 8 ------- null}
+ -t 0.24512 -s 2 -d 3 -p tcp -e 1040 -c 3 -i 80 -a 3 -x {2.1 3.1 17 ------- null}
+ -t 0.24512 -s 2 -d 3 -p tcp -e 1040 -c 3 -i 81 -a 3 -x {2.1 3.1 18 ------- null}
- -t 0.24976 -s 1 -d 2 -p tcp -e 1040 -c 0 -i 53 -a 0 -x {1.0 2.0 12 ------- null}
h -t 0.24976 -s 1 -d 2 -p tcp -e 1040 -c 0 -i 53 -a 0 -x {1.0 2.0 -1 ------- null}
- -t 0.24976 -s 2 -d 3 -p tcp -e 1040 -c 4 -i 49 -a 4 -x {2.2 4.1 4 ------- null}
h -t 0.24976 -s 2 -d 3 -p tcp -e 1040 -c 4 -i 49 -a 4 -x {2.2 4.1 -1 ------- null}
r -t 0.25144 -s 1 -d 2 -p tcp -e 1040 -c 0 -i 45 -a 0 -x {1.0 2.0 10 ------- null}
+ -t 0.25144 -s 2 -d 1 -p ack -e 40 -c 0 -i 82 -a 0 -x {2.0 1.0 10 ------- null}
- -t 0.25144 -s 2 -d 1 -p ack -e 40 -c 0 -i 82 -a 0 -x {2.0 1.0 10 ------- null}
h -t 0.25144 -s 2 -d 1 -p ack -e 40 -c 0 -i 82 -a 0 -x {2.0 1.0 -1 ------- null}
r -t 0.25144 -s 2 -d 3 -p tcp -e 1040 -c 3 -i 47 -a 3 -x {2.1 3.1 10 ------- null}
+ -t 0.25144 -s 3 -d 2 -p ack -e 40 -c 3 -i 83 -a 3 -x {3.1 2.1 10 ------- null}
- -t 0.25144 -s 3 -d 2 -p ack -e 40 -c 3 -i 83 -a 3 -x {3.1 2.1 10 ------- null}
h -t 0.25144 -s 3 -d 2 -p ack -e 40 -c 3 -i 83 -a 3 -x {3.1 2.1 -1 ------- null}
r -t 0.25344 -s 2 -d 1 -p ack -e 40 -c 0 -i 76 -a 0 -x {2.0 1.0 9 ------- null}
+ -t 0.25344 -s 1 -d 2 -p tcp -e 1040 -c 0 -i 84 -a 0 -x {1.0 2.0 19 ------- null}
+ -t 0.25344 -s 1 -d 2 -p tcp -e 1040 -c 0 -i 85 -a 0 -x {1.0 2.0 20 ------- null}
r -t 0.25344 -s 3 -d 2 -p ack -e 40 -c 3 -i 77 -a 3 -x {3.1 2.1 9 ------- null}
+ -t 0.25344 -s 2 -d 3 -p tcp -e 1040 -c 3 -i 86 -a 3 -x {2.1 3.1 19 ------- null}
+ -t 0.25344 -s 2 -d 3 -p tcp -e 1040 -c 3 -i 87 -a 3 -x {2.1 3.1 20 ------- null}
- -t 0.25808 -s 1 -d 2 -p tcp -e 1040 -c 0 -i 59 -a 0 -x {1.0 2.0 13 ------- null}
h -t 0.25808 -s 1 -d 2 -p tcp -e 1040 -c 0 -i 59 -a 0 -x {1.0 2.0 -1 ------- null}
- -t 0.25808 -s 2 -d 3 -p tcp -e 1040 -c 3 -i 54 -a 3 -x {2.1 3.1 11 ------- null}
h -t 0.25808 -s 2 -d 3 -p tcp -e 1040 -c 3 -i 54 -a 3 -x {2.1 3.1 -1 ------- null}
r -t 0.25976 -s 1 -d 2 -p tcp -e 1040 -c 0 -i 52 -a 0 -x {1.0 2.0 11 ------- null}
+ -t 0.25976 -s 2 -d 1 -p ack -e 40 -c 0 -i 88 -a 0 -x {2.0 1.0 11 ------- null}
- -t 0.25976 -s 2 -d 1 -p ack -e 40 -c 0 -i 88 -a 0 -x {2.0 1.0 11 ------- null}
h -t 0.25976 -s 2 -d 1 -p ack -e 40 -c 0 -i 88 -a 0 -x {2.0 1.0 -1 ------- null}
r -t 0.25976 -s 2 -d 3 -p tcp -e 1040 -c 4 -i 48 -a 4 -x {2.2 4.1 3 ------- null}
+ -t 0.25976 -s 3 -d 4 -p tcp -e 1040 -c 4 -i 48 -a 4 -x {2.2 4.1 3 ------- null}
- -t 0.25976 -s 3 -d 4 -p tcp -e 1040 -c 4 -i 48 -a 4 -x {2.2 4.1 3 ------- null}
h -t 0.25976 -s 3 -d 4 -p tcp -e 1040 -c 4 -i 48 -a 4 -x {2.2 4.1 -1 ------- null}
r -t 0.26176 -s 2 -d 1 -p ack -e 40 -c 0 -i 82 -a 0 -x {2.0 1.0 10 ------- null}
+ -t 0.26176 -s 1 -d 2 -p tcp -e 1040 -c 0 -i 89 -a 0 -x {1.0 2.0 21 ------- null}
+ -t 0.26176 -s 1 -d 2 -p tcp -e 1040 -c 0 -i 90 -a 0 -x {1.0 2.0 22 ------- null}
r -t 0.26176 -s 3 -d 2 -p ack -e 40 -c 3 -i 83 -a 3 -x {3.1 2.1 10 ------- null}
+ -t 0.26176 -s 2 -d 3 -p tcp -e 1040 -c 3 -i 91 -a 3 -x {2.1 3.1 21 ------- null}
+ -t 0.26176 -s 2 -d 3 -p tcp -e 1040 -c 3 -i 92 -a 3 -x {2.1 3.1 22 ------- null}
- -t 0.2664 -s 1 -d 2 -p tcp -e 1040 -c 0 -i 60 -a 0 -x {1.0 2.0 14 ------- null}
h -t 0.2664 -s 1 -d 2 -p tcp -e 1040 -c 0 -i 60 -a 0 -x {1.0 2.0 -1 ------- null}