V -t * -v 1.0a5 -a 0
A -t * -n 1 -p 0 -o 0x7fffffff -c 30 -a 1
A -t * -h 1 -m 1073741823 -s 0
n -t * -a 4 -s 4 -S UP -v circle -c black -i black
n -t * -a 0 -s 0 -S UP -v circle -c black -i black
n -t * -a 1 -s 1 -S UP -v circle -c black -i black
n -t * -a 2 -s 2 -S UP -v circle -c black -i black
n -t * -a 3 -s 3 -S UP -v circle -c black -i black
X -t * -n 5 -r 0.5Mb -D 40ms -o left
L -t * -s 5 -d 0 -o up
L -t * -s 5 -d 1 -o down
L -t * -s 5 -d 2 -o up
L -t * -s 5 -d 3 -o down
L -t * -s 5 -d 4 -o up
h -t 0.5 -s 1 -d 5 -p tcp -e 40 -c 1 -i 0 -a 1 -x {1.0 3.0 0 ------- null}
+ -t 0.54 -s 1 -d 5 -p tcp -e 40 -c 1 -i 0 -a 1 -x {1.0 3.0 0 ------- null}
- -t 0.54 -s 1 -d 5 -p tcp -e 40 -c 1 -i 0 -a 1 -x {1.0 3.0 0 ------- null}
h -t 0.54 -s 1 -d 5 -p tcp -e 40 -c 1 -i 0 -a 1 -x {1.0 3.0 -1 ------- null}
r -t 0.581028 -s 5 -d 3 -p tcp -e 40 -c 1 -i 0 -a 1 -x {1.0 3.0 0 ------- null}
h -t 0.581028 -s 3 -d 5 -p ack -e 40 -c 1 -i 1 -a 1 -x {3.0 1.0 0 ------- null}
+ -t 0.621028 -s 3 -d 5 -p ack -e 40 -c 1 -i 1 -a 1 -x {3.0 1.0 0 ------- null}
- -t 0.621028 -s 3 -d 5 -p ack -e 40 -c 1 -i 1 -a 1 -x {3.0 1.0 0 ------- null}
h -t 0.621028 -s 3 -d 5 -p ack -e 40 -c 1 -i 1 -a 1 -x {3.0 1.0 -1 ------- null}
r -t 0.662056 -s 5 -d 1 -p ack -e 40 -c 1 -i 1 -a 1 -x {3.0 1.0 0 ------- null}
h -t 0.662056 -s 1 -d 5 -p tcp -e 1040 -c 1 -i 2 -a 1 -x {1.0 3.0 1 ------- null}
h -t 0.662056 -s 1 -d 5 -p tcp -e 1040 -c 1 -i 3 -a 1 -x {1.0 3.0 2 ------- null}
+ -t 0.702056 -s 1 -d 5 -p tcp -e 1040 -c 1 -i 2 -a 1 -x {1.0 3.0 1 ------- null}
- -t 0.702056 -s 1 -d 5 -p tcp -e 1040 -c 1 -i 2 -a 1 -x {1.0 3.0 1 ------- null}
h -t 0.702056 -s 1 -d 5 -p tcp -e 1040 -c 1 -i 2 -a 1 -x {1.0 3.0 -1 ------- null}
+ -t 0.702056 -s 1 -d 5 -p tcp -e 1040 -c 1 -i 3 -a 1 -x {1.0 3.0 2 ------- null}
- -t 0.719112 -s 1 -d 5 -p tcp -e 1040 -c 1 -i 3 -a 1 -x {1.0 3.0 2 ------- null}
h -t 0.719112 -s 1 -d 5 -p tcp -e 1040 -c 1 -i 3 -a 1 -x {1.0 3.0 -1 ------- null}
r -t 0.758924 -s 5 -d 3 -p tcp -e 1040 -c 1 -i 2 -a 1 -x {1.0 3.0 1 ------- null}
h -t 0.758924 -s 3 -d 5 -p ack -e 40 -c 1 -i 4 -a 1 -x {3.0 1.0 1 ------- null}
r -t 0.77598 -s 5 -d 3 -p tcp -e 1040 -c 1 -i 3 -a 1 -x {1.0 3.0 2 ------- null}
h -t 0.77598 -s 3 -d 5 -p ack -e 40 -c 1 -i 5 -a 1 -x {3.0 1.0 2 ------- null}
+ -t 0.798924 -s 3 -d 5 -p ack -e 40 -c 1 -i 4 -a 1 -x {3.0 1.0 1 ------- null}
- -t 0.798924 -s 3 -d 5 -p ack -e 40 -c 1 -i 4 -a 1 -x {3.0 1.0 1 ------- null}
h -t 0.798924 -s 3 -d 5 -p ack -e 40 -c 1 -i 4 -a 1 -x {3.0 1.0 -1 ------- null}
+ -t 0.81598 -s 3 -d 5 -p ack -e 40 -c 1 -i 5 -a 1 -x {3.0 1.0 2 ------- null}
- -t 0.81598 -s 3 -d 5 -p ack -e 40 -c 1 -i 5 -a 1 -x {3.0 1.0 2 ------- null}
h -t 0.81598 -s 3 -d 5 -p ack -e 40 -c 1 -i 5 -a 1 -x {3.0 1.0 -1 ------- null}
r -t 0.839952 -s 5 -d 1 -p ack -e 40 -c 1 -i 4 -a 1 -x {3.0 1.0 1 ------- null}
h -t 0.839952 -s 1 -d 5 -p tcp -e 1040 -c 1 -i 6 -a 1 -x {1.0 3.0 3 ------- null}
h -t 0.839952 -s 1 -d 5 -p tcp -e 1040 -c 1 -i 7 -a 1 -x {1.0 3.0 4 ------- null}
r -t 0.857008 -s 5 -d 1 -p ack -e 40 -c 1 -i 5 -a 1 -x {3.0 1.0 2 ------- null}
h -t 0.857008 -s 1 -d 5 -p tcp -e 1040 -c 1 -i 8 -a 1 -x {1.0 3.0 5 ------- null}
h -t 0.857008 -s 1 -d 5 -p tcp -e 1040 -c 1 -i 9 -a 1 -x {1.0 3.0 6 ------- null}
+ -t 0.879952 -s 1 -d 5 -p tcp -e 1040 -c 1 -i 6 -a 1 -x {1.0 3.0 3 ------- null}
- -t 0.879952 -s 1 -d 5 -p tcp -e 1040 -c 1 -i 6 -a 1 -x {1.0 3.0 3 ------- null}
h -t 0.879952 -s 1 -d 5 -p tcp -e 1040 -c 1 -i 6 -a 1 -x {1.0 3.0 -1 ------- null}
+ -t 0.879952 -s 1 -d 5 -p tcp -e 1040 -c 1 -i 7 -a 1 -x {1.0 3.0 4 ------- null}
+ -t 0.897008 -s 1 -d 5 -p tcp -e 1040 -c 1 -i 8 -a 1 -x {1.0 3.0 5 ------- null}
+ -t 0.897008 -s 1 -d 5 -p tcp -e 1040 -c 1 -i 9 -a 1 -x {1.0 3.0 6 ------- null}
- -t 0.897008 -s 1 -d 5 -p tcp -e 1040 -c 1 -i 7 -a 1 -x {1.0 3.0 4 ------- null}
h -t 0.897008 -s 1 -d 5 -p tcp -e 1040 -c 1 -i 7 -a 1 -x {1.0 3.0 -1 ------- null}
- -t 0.914064 -s 1 -d 5 -p tcp -e 1040 -c 1 -i 8 -a 1 -x {1.0 3.0 5 ------- null}
h -t 0.914064 -s 1 -d 5 -p tcp -e 1040 -c 1 -i 8 -a 1 -x {1.0 3.0 -1 ------- null}
- -t 0.93112 -s 1 -d 5 -p tcp -e 1040 -c 1 -i 9 -a 1 -x {1.0 3.0 6 ------- null}
h -t 0.93112 -s 1 -d 5 -p tcp -e 1040 -c 1 -i 9 -a 1 -x {1.0 3.0 -1 ------- null}
r -t 0.93682 -s 5 -d 3 -p tcp -e 1040 -c 1 -i 6 -a 1 -x {1.0 3.0 3 ------- null}
h -t 0.93682 -s 3 -d 5 -p ack -e 40 -c 1 -i 10 -a 1 -x {3.0 1.0 3 ------- null}
r -t 0.953876 -s 5 -d 3 -p tcp -e 1040 -c 1 -i 7 -a 1 -x {1.0 3.0 4 ------- null}
h -t 0.953876 -s 3 -d 5 -p ack -e 40 -c 1 -i 11 -a 1 -x {3.0 1.0 4 ------- null}
r -t 0.970932 -s 5 -d 3 -p tcp -e 1040 -c 1 -i 8 -a 1 -x {1.0 3.0 5 ------- null}
h -t 0.970932 -s 3 -d 5 -p ack -e 40 -c 1 -i 12 -a 1 -x {3.0 1.0 5 ------- null}
+ -t 0.97682 -s 3 -d 5 -p ack -e 40 -c 1 -i 10 -a 1 -x {3.0 1.0 3 ------- null}
- -t 0.97682 -s 3 -d 5 -p ack -e 40 -c 1 -i 10 -a 1 -x {3.0 1.0 3 ------- null}
h -t 0.97682 -s 3 -d 5 -p ack -e 40 -c 1 -i 10 -a 1 -x {3.0 1.0 -1 ------- null}
r -t 0.987988 -s 5 -d 3 -p tcp -e 1040 -c 1 -i 9 -a 1 -x {1.0 3.0 6 ------- null}
h -t 0.987988 -s 3 -d 5 -p ack -e 40 -c 1 -i 13 -a 1 -x {3.0 1.0 6 ------- null}
+ -t 0.993876 -s 3 -d 5 -p ack -e 40 -c 1 -i 11 -a 1 -x {3.0 1.0 4 ------- null}
- -t 0.993876 -s 3 -d 5 -p ack -e 40 -c 1 -i 11 -a 1 -x {3.0 1.0 4 ------- null}
h -t 0.993876 -s 3 -d 5 -p ack -e 40 -c 1 -i 11 -a 1 -x {3.0 1.0 -1 ------- null}
+ -t 1.010932 -s 3 -d 5 -p ack -e 40 -c 1 -i 12 -a 1 -x {3.0 1.0 5 ------- null}
- -t 1.010932 -s 3 -d 5 -p ack -e 40 -c 1 -i 12 -a 1 -x {3.0 1.0 5 ------- null}
h -t 1.010932 -s 3 -d 5 -p ack -e 40 -c 1 -i 12 -a 1 -x {3.0 1.0 -1 ------- null}
r -t 1.017848 -s 5 -d 1 -p ack -e 40 -c 1 -i 10 -a 1 -x {3.0 1.0 3 ------- null}
h -t 1.017848 -s 1 -d 5 -p tcp -e 1040 -c 1 -i 14 -a 1 -x {1.0 3.0 7 ------- null}
h -t 1.017848 -s 1 -d 5 -p tcp -e 1040 -c 1 -i 15 -a 1 -x {1.0 3.0 8 ------- null}
+ -t 1.027988 -s 3 -d 5 -p ack -e 40 -c 1 -i 13 -a 1 -x {3.0 1.0 6 ------- null}
- -t 1.027988 -s 3 -d 5 -p ack -e 40 -c 1 -i 13 -a 1 -x {3.0 1.0 6 ------- null}
h -t 1.027988 -s 3 -d 5 -p ack -e 40 -c 1 -i 13 -a 1 -x {3.0 1.0 -1 ------- null}
r -t 1.034904 -s 5 -d 1 -p ack -e 40 -c 1 -i 11 -a 1 -x {3.0 1.0 4 ------- null}
h -t 1.034904 -s 1 -d 5 -p tcp -e 1040 -c 1 -i 16 -a 1 -x {1.0 3.0 9 ------- null}
h -t 1.034904 -s 1 -d 5 -p tcp -e 1040 -c 1 -i 17 -a 1 -x {1.0 3.0 10 ------- null}
r -t 1.05196 -s 5 -d 1 -p ack -e 40 -c 1 -i 12 -a 1 -x {3.0 1.0 5 ------- null}
h -t 1.05196 -s 1 -d 5 -p tcp -e 1040 -c 1 -i 18 -a 1 -x {1.0 3.0 11 ------- null}
h -t 1.05196 -s 1 -d 5 -p tcp -e 1040 -c 1 -i 19 -a 1 -x {1.0 3.0 12 ------- null}
+ -t 1.057848 -s 1 -d 5 -p tcp -e 1040 -c 1 -i 14 -a 1 -x {1.0 3.0 7 ------- null}
- -t 1.057848 -s 1 -d 5 -p tcp -e 1040 -c 1 -i 14 -a 1 -x {1.0 3.0 7 ------- null}
h -t 1.057848 -s 1 -d 5 -p tcp -e 1040 -c 1 -i 14 -a 1 -x {1.0 3.0 -1 ------- null}
+ -t 1.057848 -s 1 -d 5 -p tcp -e 1040 -c 1 -i 15 -a 1 -x {1.0 3.0 8 ------- null}
r -t 1.069016 -s 5 -d 1 -p ack -e 40 -c 1 -i 13 -a 1 -x {3.0 1.0 6 ------- null}
h -t 1.069016 -s 1 -d 5 -p tcp -e 1040 -c 1 -i 20 -a 1 -x {1.0 3.0 13 ------- null}
h -t 1.069016 -s 1 -d 5 -p tcp -e 1040 -c 1 -i 21 -a 1 -x {1.0 3.0 14 ------- null}
+ -t 1.074904 -s 1 -d 5 -p tcp -e 1040 -c 1 -i 16 -a 1 -x {1.0 3.0 9 ------- null}
+ -t 1.074904 -s 1 -d 5 -p tcp -e 1040 -c 1 -i 17 -a 1 -x {1.0 3.0 10 ------- null}
- -t 1.074904 -s 1 -d 5 -p tcp -e 1040 -c 1 -i 15 -a 1 -x {1.0 3.0 8 ------- null}
h -t 1.074904 -s 1 -d 5 -p tcp -e 1040 -c 1 -i 15 -a 1 -x {1.0 3.0 -1 ------- null}
+ -t 1.09196 -s 1 -d 5 -p tcp -e 1040 -c 1 -i 18 -a 1 -x {1.0 3.0 11 ------- null}
+ -t 1.09196 -s 1 -d 5 -p tcp -e 1040 -c 1 -i 19 -a 1 -x {1.0 3.0 12 ------- null}
- -t 1.09196 -s 1 -d 5 -p tcp -e 1040 -c 1 -i 16 -a 1 -x {1.0 3.0 9 ------- null}
h -t 1.09196 -s 1 -d 5 -p tcp -e 1040 -c 1 -i 16 -a 1 -x {1.0 3.0 -1 ------- null}
+ -t 1.109016 -s 1 -d 5 -p tcp -e 1040 -c 1 -i 20 -a 1 -x {1.0 3.0 13 ------- null}
+ -t 1.109016 -s 1 -d 5 -p tcp -e 1040 -c 1 -i 21 -a 1 -x {1.0 3.0 14 ------- null}
- -t 1.109016 -s 1 -d 5 -p tcp -e 1040 -c 1 -i 17 -a 1 -x {1.0 3.0 10 ------- null}
h -t 1.109016 -s 1 -d 5 -p tcp -e 1040 -c 1 -i 17 -a 1 -x {1.0 3.0 -1 ------- null}
r -t 1.114716 -s 5 -d 3 -p tcp -e 1040 -c 1 -i 14 -a 1 -x {1.0 3.0 7 ------- null}
h -t 1.114716 -s 3 -d 5 -p ack -e 40 -c 1 -i 22 -a 1 -x {3.0 1.0 7 ------- null}
- -t 1.126072 -s 1 -d 5 -p tcp -e 1040 -c 1 -i 18 -a 1 -x {1.0 3.0 11 ------- null}
h -t 1.126072 -s 1 -d 5 -p tcp -e 1040 -c 1 -i 18 -a 1 -x {1.0 3.0 -1 ------- null}
r -t 1.131772 -s 5 -d 3 -p tcp -e 1040 -c 1 -i 15 -a 1 -x {1.0 3.0 8 ------- null}
h -t 1.131772 -s 3 -d 5 -p ack -e 40 -c 1 -i 23 -a 1 -x {3.0 1.0 8 ------- null}
- -t 1.143128 -s 1 -d 5 -p tcp -e 1040 -c 1 -i 19 -a 1 -x {1.0 3.0 12 ------- null}
h -t 1.143128 -s 1 -d 5 -p tcp -e 1040 -c 1 -i 19 -a 1 -x {1.0 3.0 -1 ------- null}
r -t 1.148828 -s 5 -d 3 -p tcp -e 1040 -c 1 -i 16 -a 1 -x {1.0 3.0 9 ------- null}
h -t 1.148828 -s 3 -d 5 -p ack -e 40 -c 1 -i 24 -a 1 -x {3.0 1.0 9 ------- null}
+ -t 1.154716 -s 3 -d 5 -p ack -e 40 -c 1 -i 22 -a 1 -x {3.0 1.0 7 ------- null}
- -t 1.154716 -s 3 -d 5 -p ack -e 40 -c 1 -i 22 -a 1 -x {3.0 1.0 7 ------- null}
h -t 1.154716 -s 3 -d 5 -p ack -e 40 -c 1 -i 22 -a 1 -x {3.0 1.0 -1 ------- null}
- -t 1.160184 -s 1 -d 5 -p tcp -e 1040 -c 1 -i 20 -a 1 -x {1.0 3.0 13 ------- null}
h -t 1.160184 -s 1 -d 5 -p tcp -e 1040 -c 1 -i 20 -a 1 -x {1.0 3.0 -1 ------- null}
r -t 1.165884 -s 5 -d 3 -p tcp -e 1040 -c 1 -i 17 -a 1 -x {1.0 3.0 10 ------- null}
h -t 1.165884 -s 3 -d 5 -p ack -e 40 -c 1 -i 25 -a 1 -x {3.0 1.0 10 ------- null}
+ -t 1.171772 -s 3 -d 5 -p ack -e 40 -c 1 -i 23 -a 1 -x {3.0 1.0 8 ------- null}
- -t 1.171772 -s 3 -d 5 -p ack -e 40 -c 1 -i 23 -a 1 -x {3.0 1.0 8 ------- null}
h -t 1.171772 -s 3 -d 5 -p ack -e 40 -c 1 -i 23 -a 1 -x {3.0 1.0 -1 ------- null}
- -t 1.17872 -s 1 -d 5 -p tcp -e 1040 -c 1 -i 21 -a 1 -x {1.0 3.0 14 ------- null}
h -t 1.17872 -s 1 -d 5 -p tcp -e 1040 -c 1 -i 21 -a 1 -x {1.0 3.0 -1 ------- null}
r -t 1.18294 -s 5 -d 3 -p tcp -e 1040 -c 1 -i 18 -a 1 -x {1.0 3.0 11 ------- null}
h -t 1.18294 -s 3 -d 5 -p ack -e 40 -c 1 -i 26 -a 1 -x {3.0 1.0 11 ------- null}
+ -t 1.188828 -s 3 -d 5 -p ack -e 40 -c 1 -i 24 -a 1 -x {3.0 1.0 9 ------- null}
- -t 1.19726 -s 3 -d 5 -p ack -e 40 -c 1 -i 24 -a 1 -x {3.0 1.0 9 ------- null}
h -t 1.19726 -s 3 -d 5 -p ack -e 40 -c 1 -i 24 -a 1 -x {3.0 1.0 -1 ------- null}
r -t 1.199996 -s 5 -d 3 -p tcp -e 1040 -c 1 -i 19 -a 1 -x {1.0 3.0 12 ------- null}
h -t 1.199996 -s 3 -d 5 -p ack -e 40 -c 1 -i 27 -a 1 -x {3.0 1.0 12 ------- null}
r -t 1.201472 -s 5 -d 1 -p ack -e 40 -c 1 -i 22 -a 1 -x {3.0 1.0 7 ------- null}
h -t 1.201472 -s 1 -d 5 -p tcp -e 1040 -c 1 -i 28 -a 1 -x {1.0 3.0 15 ------- null}
h -t 1.201472 -s 1 -d 5 -p tcp -e 1040 -c 1 -i 29 -a 1 -x {1.0 3.0 16 ------- null}
+ -t 1.205884 -s 3 -d 5 -p ack -e 40 -c 1 -i 25 -a 1 -x {3.0 1.0 10 ------- null}
- -t 1.205884 -s 3 -d 5 -p ack -e 40 -c 1 -i 25 -a 1 -x {3.0 1.0 10 ------- null}
h -t 1.205884 -s 3 -d 5 -p ack -e 40 -c 1 -i 25 -a 1 -x {3.0 1.0 -1 ------- null}
r -t 1.218532 -s 5 -d 3 -p tcp -e 1040 -c 1 -i 20 -a 1 -x {1.0 3.0 13 ------- null}
h -t 1.218532 -s 3 -d 5 -p ack -e 40 -c 1 -i 30 -a 1 -x {3.0 1.0 13 ------- null}
+ -t 1.22294 -s 3 -d 5 -p ack -e 40 -c 1 -i 26 -a 1 -x {3.0 1.0 11 ------- null}
- -t 1.22294 -s 3 -d 5 -p ack -e 40 -c 1 -i 26 -a 1 -x {3.0 1.0 11 ------- null}
h -t 1.22294 -s 3 -d 5 -p ack -e 40 -c 1 -i 26 -a 1 -x {3.0 1.0 -1 ------- null}
r -t 1.235852 -s 5 -d 3 -p tcp -e 1040 -c 1 -i 21 -a 1 -x {1.0 3.0 14 ------- null}
h -t 1.235852 -s 3 -d 5 -p ack -e 40 -c 1 -i 31 -a 1 -x {3.0 1.0 14 ------- null}
r -t 1.237072 -s 5 -d 1 -p ack -e 40 -c 1 -i 23 -a 1 -x {3.0 1.0 8 ------- null}
h -t 1.237072 -s 1 -d 5 -p tcp -e 1040 -c 1 -i 32 -a 1 -x {1.0 3.0 17 ------- null}
h -t 1.237072 -s 1 -d 5 -p tcp -e 1040 -c 1 -i 33 -a 1 -x {1.0 3.0 18 ------- null}
r -t 1.238288 -s 5 -d 1 -p ack -e 40 -c 1 -i 24 -a 1 -x {3.0 1.0 9 ------- null}
h -t 1.238288 -s 1 -d 5 -p tcp -e 1040 -c 1 -i 34 -a 1 -x {1.0 3.0 19 ------- null}
h -t 1.238288 -s 1 -d 5 -p tcp -e 1040 -c 1 -i 35 -a 1 -x {1.0 3.0 20 ------- null}
+ -t 1.239996 -s 3 -d 5 -p ack -e 40 -c 1 -i 27 -a 1 -x {3.0 1.0 12 ------- null}
- -t 1.239996 -s 3 -d 5 -p ack -e 40 -c 1 -i 27 -a 1 -x {3.0 1.0 12 ------- null}
h -t 1.239996 -s 3 -d 5 -p ack -e 40 -c 1 -i 27 -a 1 -x {3.0 1.0 -1 ------- null}
+ -t 1.241472 -s 1 -d 5 -p tcp -e 1040 -c 1 -i 28 -a 1 -x {1.0 3.0 15 ------- null}
- -t 1.241472 -s 1 -d 5 -p tcp -e 1040 -c 1 -i 28 -a 1 -x {1.0 3.0 15 ------- null}
h -t 1.241472 -s 1 -d 5 -p tcp -e 1040 -c 1 -i 28 -a 1 -x {1.0 3.0 -1 ------- null}
+ -t 1.241472 -s 1 -d 5 -p tcp -e 1040 -c 1 -i 29 -a 1 -x {1.0 3.0 16 ------- null}
r -t 1.246912 -s 5 -d 1 -p ack -e 40 -c 1 -i 25 -a 1 -x {3.0 1.0 10 ------- null}
h -t 1.246912 -s 1 -d 5 -p tcp -e 1040 -c 1 -i 36 -a 1 -x {1.0 3.0 21 ------- null}
h -t 1.246912 -s 1 -d 5 -p tcp -e 1040 -c 1 -i 37 -a 1 -x {1.0 3.0 22 ------- null}
- -t 1.258528 -s 1 -d 5 -p tcp -e 1040 -c 1 -i 29 -a 1 -x {1.0 3.0 16 ------- null}
h -t 1.258528 -s 1 -d 5 -p tcp -e 1040 -c 1 -i 29 -a 1 -x {1.0 3.0 -1 ------- null}
+ -t 1.258532 -s 3 -d 5 -p ack -e 40 -c 1 -i 30 -a 1 -x {3.0 1.0 13 ------- null}
- -t 1.258532 -s 3 -d 5 -p ack -e 40 -c 1 -i 30 -a 1 -x {3.0 1.0 13 ------- null}
h -t 1.258532 -s 3 -d 5 -p ack -e 40 -c 1 -i 30 -a 1 -x {3.0 1.0 -1 ------- null}
r -t 1.263968 -s 5 -d 1 -p ack -e 40 -c 1 -i 26 -a 1 -x {3.0 1.0 11 ------- null}
h -t 1.263968 -s 1 -d 5 -p tcp -e 1040 -c 1 -i 38 -a 1 -x {1.0 3.0 23 ------- null}
h -t 1.263968 -s 1 -d 5 -p tcp -e 1040 -c 1 -i 39 -a 1 -x {1.0 3.0 24 ------- null}
+ -t 1.275852 -s 3 -d 5 -p ack -e 40 -c 1 -i 31 -a 1 -x {3.0 1.0 14 ------- null}
- -t 1.275852 -s 3 -d 5 -p ack -e 40 -c 1 -i 31 -a 1 -x {3.0 1.0 14 ------- null}
h -t 1.275852 -s 3 -d 5 -p ack -e 40 -c 1 -i 31 -a 1 -x {3.0 1.0 -1 ------- null}
+ -t 1.277072 -s 1 -d 5 -p tcp -e 1040 -c 1 -i 32 -a 1 -x {1.0 3.0 17 ------- null}
+ -t 1.277072 -s 1 -d 5 -p tcp -e 1040 -c 1 -i 33 -a 1 -x {1.0 3.0 18 ------- null}
+ -t 1.278288 -s 1 -d 5 -p tcp -e 1040 -c 1 -i 34 -a 1 -x {1.0 3.0 19 ------- null}
+ -t 1.278288 -s 1 -d 5 -p tcp -e 1040 -c 1 -i 35 -a 1 -x {1.0 3.0 20 ------- null}
- -t 1.278352 -s 1 -d 5 -p tcp -e 1040 -c 1 -i 32 -a 1 -x {1.0 3.0 17 ------- null}
h -t 1.278352 -s 1 -d 5 -p tcp -e 1040 -c 1 -i 32 -a 1 -x {1.0 3.0 -1 ------- null}
r -t 1.281024 -s 5 -d 1 -p ack -e 40 -c 1 -i 27 -a 1 -x {3.0 1.0 12 ------- null}
h -t 1.281024 -s 1 -d 5 -p tcp -e 1040 -c 1 -i 40 -a 1 -x {1.0 3.0 25 ------- null}
h -t 1.281024 -s 1 -d 5 -p tcp -e 1040 -c 1 -i 41 -a 1 -x {1.0 3.0 26 ------- null}
+ -t 1.286912 -s 1 -d 5 -p tcp -e 1040 -c 1 -i 36 -a 1 -x {1.0 3.0 21 ------- null}
+ -t 1.286912 -s 1 -d 5 -p tcp -e 1040 -c 1 -i 37 -a 1 -x {1.0 3.0 22 ------- null}
- -t 1.296888 -s 1 -d 5 -p tcp -e 1040 -c 1 -i 33 -a 1 -x {1.0 3.0 18 ------- null}
h -t 1.296888 -s 1 -d 5 -p tcp -e 1040 -c 1 -i 33 -a 1 -x {1.0 3.0 -1 ------- null}
r -t 1.29834 -s 5 -d 3 -p tcp -e 1040 -c 1 -i 28 -a 1 -x {1.0 3.0 15 ------- null}
h -t 1.29834 -s 3 -d 5 -p ack -e 40 -c 1 -i 42 -a 1 -x {3.0 1.0 15 ------- null}
r -t 1.301104 -s 5 -d 1 -p ack -e 40 -c 1 -i 30 -a 1 -x {3.0 1.0 13 ------- null}
h -t 1.301104 -s 1 -d 5 -p tcp -e 1040 -c 1 -i 43 -a 1 -x {1.0 3.0 27 ------- null}
h -t 1.301104 -s 1 -d 5 -p tcp -e 1040 -c 1 -i 44 -a 1 -x {1.0 3.0 28 ------- null}
+ -t 1.303968 -s 1 -d 5 -p tcp -e 1040 -c 1 -i 38 -a 1 -x {1.0 3.0 23 ------- null}
+ -t 1.303968 -s 1 -d 5 -p tcp -e 1040 -c 1 -i 39 -a 1 -x {1.0 3.0 24 ------- null}
- -t 1.313944 -s 1 -d 5 -p tcp -e 1040 -c 1 -i 34 -a 1 -x {1.0 3.0 19 ------- null}
h -t 1.313944 -s 1 -d 5 -p tcp -e 1040 -c 1 -i 34 -a 1 -x {1.0 3.0 -1 ------- null}
r -t 1.318164 -s 5 -d 3 -p tcp -e 1040 -c 1 -i 29 -a 1 -x {1.0 3.0 16 ------- null}
h -t 1.318164 -s 3 -d 5 -p ack -e 40 -c 1 -i 45 -a 1 -x {3.0 1.0 16 ------- null}
r -t 1.31964 -s 5 -d 1 -p ack -e 40 -c 1 -i 31 -a 1 -x {3.0 1.0 14 ------- null}
h -t 1.31964 -s 1 -d 5 -p tcp -e 1040 -c 1 -i 46 -a 1 -x {1.0 3.0 29 ------- null}
h -t 1.31964 -s 1 -d 5 -p tcp -e 1040 -c 1 -i 47 -a 1 -x {1.0 3.0 30 ------- null}
+ -t 1.321024 -s 1 -d 5 -p tcp -e 1040 -c 1 -i 40 -a 1 -x {1.0 3.0 25 ------- null}
+ -t 1.321024 -s 1 -d 5 -p tcp -e 1040 -c 1 -i 41 -a 1 -x {1.0 3.0 26 ------- null}
- -t 1.331 -s 1 -d 5 -p tcp -e 1040 -c 1 -i 35 -a 1 -x {1.0 3.0 20 ------- null}
h -t 1.331 -s 1 -d 5 -p tcp -e 1040 -c 1 -i 35 -a 1 -x {1.0 3.0 -1 ------- null}
r -t 1.3367 -s 5 -d 3 -p tcp -e 1040 -c 1 -i 32 -a 1 -x {1.0 3.0 17 ------- null}
h -t 1.3367 -s 3 -d 5 -p ack -e 40 -c 1 -i 48 -a 1 -x {3.0 1.0 17 ------- null}
+ -t 1.33834 -s 3 -d 5 -p ack -e 40 -c 1 -i 42 -a 1 -x {3.0 1.0 15 ------- null}
- -t 1.33834 -s 3 -d 5 -p ack -e 40 -c 1 -i 42 -a 1 -x {3.0 1.0 15 ------- null}
h -t 1.33834 -s 3 -d 5 -p ack -e 40 -c 1 -i 42 -a 1 -x {3.0 1.0 -1 ------- null}
+ -t 1.341104 -s 1 -d 5 -p tcp -e 1040 -c 1 -i 43 -a 1 -x {1.0 3.0 27 ------- null}
+ -t 1.341104 -s 1 -d 5 -p tcp -e 1040 -c 1 -i 44 -a 1 -x {1.0 3.0 28 ------- null}
- -t 1.348056 -s 1 -d 5 -p tcp -e 1040 -c 1 -i 36 -a 1 -x {1.0 3.0 21 ------- null}
h -t 1.348056 -s 1 -d 5 -p tcp -e 1040 -c 1 -i 36 -a 1 -x {1.0 3.0 -1 ------- null}
r -t 1.353756 -s 5 -d 3 -p tcp -e 1040 -c 1 -i 33 -a 1 -x {1.0 3.0 18 ------- null}
h -t 1.353756 -s 3 -d 5 -p ack -e 40 -c 1 -i 49 -a 1 -x {3.0 1.0 18 ------- null}
+ -t 1.358164 -s 3 -d 5 -p ack -e 40 -c 1 -i 45 -a 1 -x {3.0 1.0 16 ------- null}
- -t 1.358164 -s 3 -d 5 -p ack -e 40 -c 1 -i 45 -a 1 -x {3.0 1.0 16 ------- null}
h -t 1.358164 -s 3 -d 5 -p ack -e 40 -c 1 -i 45 -a 1 -x {3.0 1.0 -1 ------- null}
+ -t 1.35964 -s 1 -d 5 -p tcp -e 1040 -c 1 -i 46 -a 1 -x {1.0 3.0 29 ------- null}
+ -t 1.35964 -s 1 -d 5 -p tcp -e 1040 -c 1 -i 47 -a 1 -x {1.0 3.0 30 ------- null}
- -t 1.368704 -s 1 -d 5 -p tcp -e 1040 -c 1 -i 37 -a 1 -x {1.0 3.0 22 ------- null}
h -t 1.368704 -s 1 -d 5 -p tcp -e 1040 -c 1 -i 37 -a 1 -x {1.0 3.0 -1 ------- null}
r -t 1.370812 -s 5 -d 3 -p tcp -e 1040 -c 1 -i 34 -a 1 -x {1.0 3.0 19 ------- null}
h -t 1.370812 -s 3 -d 5 -p ack -e 40 -c 1 -i 50 -a 1 -x {3.0 1.0 19 ------- null}
+ -t 1.3767 -s 3 -d 5 -p ack -e 40 -c 1 -i 48 -a 1 -x {3.0 1.0 17 ------- null}
- -t 1.387304 -s 1 -d 5 -p tcp -e 1040 -c 1 -i 38 -a 1 -x {1.0 3.0 23 ------- null}
h -t 1.387304 -s 1 -d 5 -p tcp -e 1040 -c 1 -i 38 -a 1 -x {1.0 3.0 -1 ------- null}
r -t 1.387868 -s 5 -d 3 -p tcp -e 1040 -c 1 -i 35 -a 1 -x {1.0 3.0 20 ------- null}
h -t 1.387868 -s 3 -d 5 -p ack -e 40 -c 1 -i 51 -a 1 -x {3.0 1.0 20 ------- null}
r -t 1.389608 -s 5 -d 1 -p ack -e 40 -c 1 -i 42 -a 1 -x {3.0 1.0 15 ------- null}
h -t 1.389608 -s 1 -d 5 -p tcp -e 1040 -c 1 -i 52 -a 1 -x {1.0 3.0 31 ------- null}
h -t 1.389608 -s 1 -d 5 -p tcp -e 1040 -c 1 -i 53 -a 1 -x {1.0 3.0 32 ------- null}
+ -t 1.393756 -s 3 -d 5 -p ack -e 40 -c 1 -i 49 -a 1 -x {3.0 1.0 18 ------- null}
- -t 1.405648 -s 1 -d 5 -p tcp -e 1040 -c 1 -i 39 -a 1 -x {1.0 3.0 24 ------- null}
h -t 1.405648 -s 1 -d 5 -p tcp -e 1040 -c 1 -i 39 -a 1 -x {1.0 3.0 -1 ------- null}
r -t 1.408516 -s 5 -d 3 -p tcp -e 1040 -c 1 -i 36 -a 1 -x {1.0 3.0 21 ------- null}
h -t 1.408516 -s 3 -d 5 -p ack -e 40 -c 1 -i 54 -a 1 -x {3.0 1.0 21 ------- null}
+ -t 1.410812 -s 3 -d 5 -p ack -e 40 -c 1 -i 50 -a 1 -x {3.0 1.0 19 ------- null}
- -t 1.422968 -s 1 -d 5 -p tcp -e 1040 -c 1 -i 40 -a 1 -x {1.0 3.0 25 ------- null}
h -t 1.422968 -s 1 -d 5 -p tcp -e 1040 -c 1 -i 40 -a 1 -x {1.0 3.0 -1 ------- null}
r -t 1.427116 -s 5 -d 3 -p tcp -e 1040 -c 1 -i 37 -a 1 -x {1.0 3.0 22 ------- null}
h -t 1.427116 -s 3 -d 5 -p ack -e 40 -c 1 -i 55 -a 1 -x {3.0 1.0 22 ------- null}
+ -t 1.427868 -s 3 -d 5 -p ack -e 40 -c 1 -i 51 -a 1 -x {3.0 1.0 20 ------- null}
+ -t 1.429608 -s 1 -d 5 -p tcp -e 1040 -c 1 -i 52 -a 1 -x {1.0 3.0 31 ------- null}
+ -t 1.429608 -s 1 -d 5 -p tcp -e 1040 -c 1 -i 53 -a 1 -x {1.0 3.0 32 ------- null}
- -t 1.441312 -s 1 -d 5 -p tcp -e 1040 -c 1 -i 41 -a 1 -x {1.0 3.0 26 ------- null}
h -t 1.441312 -s 1 -d 5 -p tcp -e 1040 -c 1 -i 41 -a 1 -x {1.0 3.0 -1 ------- null}
r -t 1.44546 -s 5 -d 3 -p tcp -e 1040 -c 1 -i 38 -a 1 -x {1.0 3.0 23 ------- null}
h -t 1.44546 -s 3 -d 5 -p ack -e 40 -c 1 -i 56 -a 1 -x {3.0 1.0 23 ------- null}
+ -t 1.448516 -s 3 -d 5 -p ack -e 40 -c 1 -i 54 -a 1 -x {3.0 1.0 21 ------- null}
- -t 1.459656 -s 1 -d 5 -p tcp -e 1040 -c 1 -i 43 -a 1 -x {1.0 3.0 27 ------- null}
h -t 1.459656 -s 1 -d 5 -p tcp -e 1040 -c 1 -i 43 -a 1 -x {1.0 3.0 -1 ------- null}
r -t 1.46278 -s 5 -d 3 -p tcp -e 1040 -c 1 -i 39 -a 1 -x {1.0 3.0 24 ------- null}
h -t 1.46278 -s 3 -d 5 -p ack -e 40 -c 1 -i 57 -a 1 -x {3.0 1.0 24 ------- null}
+ -t 1.467116 -s 3 -d 5 -p ack -e 40 -c 1 -i 55 -a 1 -x {3.0 1.0 22 ------- null}
- -t 1.476712 -s 1 -d 5 -p tcp -e 1040 -c 1 -i 44 -a 1 -x {1.0 3.0 28 ------- null}
h -t 1.476712 -s 1 -d 5 -p tcp -e 1040 -c 1 -i 44 -a 1 -x {1.0 3.0 -1 ------- null}
r -t 1.481124 -s 5 -d 3 -p tcp -e 1040 -c 1 -i 40 -a 1 -x {1.0 3.0 25 ------- null}
h -t 1.481124 -s 3 -d 5 -p ack -e 40 -c 1 -i 58 -a 1 -x {3.0 1.0 25 ------- null}
+ -t 1.48546 -s 3 -d 5 -p ack -e 40 -c 1 -i 56 -a 1 -x {3.0 1.0 23 ------- null}
- -t 1.494032 -s 1 -d 5 -p tcp -e 1040 -c 1 -i 46 -a 1 -x {1.0 3.0 29 ------- null}
h -t 1.494032 -s 1 -d 5 -p tcp -e 1040 -c 1 -i 46 -a 1 -x {1.0 3.0 -1 ------- null}
r -t 1.499468 -s 5 -d 3 -p tcp -e 1040 -c 1 -i 41 -a 1 -x {1.0 3.0 26 ------- null}
h -t 1.499468 -s 3 -d 5 -p ack -e 40 -c 1 -i 59 -a 1 -x {3.0 1.0 26 ------- null}
+ -t 1.50278 -s 3 -d 5 -p ack -e 40 -c 1 -i 57 -a 1 -x {3.0 1.0 24 ------- null}
- -t 1.511088 -s 1 -d 5 -p tcp -e 1040 -c 1 -i 47 -a 1 -x {1.0 3.0 30 ------- null}
h -t 1.511088 -s 1 -d 5 -p tcp -e 1040 -c 1 -i 47 -a 1 -x {1.0 3.0 -1 ------- null}
r -t 1.516524 -s 5 -d 3 -p tcp -e 1040 -c 1 -i 43 -a 1 -x {1.0 3.0 27 ------- null}
h -t 1.516524 -s 3 -d 5 -p ack -e 40 -c 1 -i 60 -a 1 -x {3.0 1.0 27 ------- null}
+ -t 1.521124 -s 3 -d 5 -p ack -e 40 -c 1 -i 58 -a 1 -x {3.0 1.0 25 ------- null}
- -t 1.528144 -s 1 -d 5 -p tcp -e 1040 -c 1 -i 52 -a 1 -x {1.0 3.0 31 ------- null}
h -t 1.528144 -s 1 -d 5 -p tcp -e 1040 -c 1 -i 52 -a 1 -x {1.0 3.0 -1 ------- null}
r -t 1.533844 -s 5 -d 3 -p tcp -e 1040 -c 1 -i 44 -a 1 -x {1.0 3.0 28 ------- null}
h -t 1.533844 -s 3 -d 5 -p ack -e 40 -c 1 -i 61 -a 1 -x {3.0 1.0 28 ------- null}
+ -t 1.539468 -s 3 -d 5 -p ack -e 40 -c 1 -i 59 -a 1 -x {3.0 1.0 26 ------- null}
- -t 1.5452 -s 1 -d 5 -p tcp -e 1040 -c 1 -i 53 -a 1 -x {1.0 3.0 32 ------- null}
h -t 1.5452 -s 1 -d 5 -p tcp -e 1040 -c 1 -i 53 -a 1 -x {1.0 3.0 -1 ------- null}
r -t 1.5509 -s 5 -d 3 -p tcp -e 1040 -c 1 -i 46 -a 1 -x {1.0 3.0 29 ------- null}
h -t 1.5509 -s 3 -d 5 -p ack -e 40 -c 1 -i 62 -a 1 -x {3.0 1.0 29 ------- null}
+ -t 1.556524 -s 3 -d 5 -p ack -e 40 -c 1 -i 60 -a 1 -x {3.0 1.0 27 ------- null}
r -t 1.567956 -s 5 -d 3 -p tcp -e 1040 -c 1 -i 47 -a 1 -x {1.0 3.0 30 ------- null}
h -t 1.567956 -s 3 -d 5 -p ack -e 40 -c 1 -i 63 -a 1 -x {3.0 1.0 30 ------- null}
+ -t 1.573844 -s 3 -d 5 -p ack -e 40 -c 1 -i 61 -a 1 -x {3.0 1.0 28 ------- null}
r -t 1.585012 -s 5 -d 3 -p tcp -e 1040 -c 1 -i 52 -a 1 -x {1.0 3.0 31 ------- null}
h -t 1.585012 -s 3 -d 5 -p ack -e 40 -c 1 -i 64 -a 1 -x {3.0 1.0 31 ------- null}
- -t 1.586732 -s 3 -d 5 -p ack -e 40 -c 1 -i 48 -a 1 -x {3.0 1.0 17 ------- null}
h -t 1.586732 -s 3 -d 5 -p ack -e 40 -c 1 -i 48 -a 1 -x {3.0 1.0 -1 ------- null}
- -t 1.587948 -s 3 -d 5 -p ack -e 40 -c 1 -i 49 -a 1 -x {3.0 1.0 18 ------- null}
h -t 1.587948 -s 3 -d 5 -p ack -e 40 -c 1 -i 49 -a 1 -x {3.0 1.0 -1 ------- null}
- -t 1.589164 -s 3 -d 5 -p ack -e 40 -c 1 -i 50 -a 1 -x {3.0 1.0 19 ------- null}
h -t 1.589164 -s 3 -d 5 -p ack -e 40 -c 1 -i 50 -a 1 -x {3.0 1.0 -1 ------- null}
- -t 1.59038 -s 3 -d 5 -p ack -e 40 -c 1 -i 51 -a 1 -x {3.0 1.0 20 ------- null}
h -t 1.59038 -s 3 -d 5 -p ack -e 40 -c 1 -i 51 -a 1 -x {3.0 1.0 -1 ------- null}
+ -t 1.5909 -s 3 -d 5 -p ack -e 40 -c 1 -i 62 -a 1 -x {3.0 1.0 29 ------- null}
- -t 1.591596 -s 3 -d 5 -p ack -e 40 -c 1 -i 54 -a 1 -x {3.0 1.0 21 ------- null}
h -t 1.591596 -s 3 -d 5 -p ack -e 40 -c 1 -i 54 -a 1 -x {3.0 1.0 -1 ------- null}
- -t 1.592812 -s 3 -d 5 -p ack -e 40 -c 1 -i 55 -a 1 -x {3.0 1.0 22 ------- null}
h -t 1.592812 -s 3 -d 5 -p ack -e 40 -c 1 -i 55 -a 1 -x {3.0 1.0 -1 ------- null}
- -t 1.594028 -s 3 -d 5 -p ack -e 40 -c 1 -i 56 -a 1 -x {3.0 1.0 23 ------- null}
h -t 1.594028 -s 3 -d 5 -p ack -e 40 -c 1 -i 56 -a 1 -x {3.0 1.0 -1 ------- null}
- -t 1.595244 -s 3 -d 5 -p ack -e 40 -c 1 -i 57 -a 1 -x {3.0 1.0 24 ------- null}
h -t 1.595244 -s 3 -d 5 -p ack -e 40 -c 1 -i 57 -a 1 -x {3.0 1.0 -1 ------- null}
- -t 1.59646 -s 3 -d 5 -p ack -e 40 -c 1 -i 58 -a 1 -x {3.0 1.0 25 ------- null}
h -t 1.59646 -s 3 -d 5 -p ack -e 40 -c 1 -i 58 -a 1 -x {3.0 1.0 -1 ------- null}
- -t 1.597676 -s 3 -d 5 -p ack -e 40 -c 1 -i 59 -a 1 -x {3.0 1.0 26 ------- null}
h -t 1.597676 -s 3 -d 5 -p ack -e 40 -c 1 -i 59 -a 1 -x {3.0 1.0 -1 ------- null}
- -t 1.598892 -s 3 -d 5 -p ack -e 40 -c 1 -i 60 -a 1 -x {3.0 1.0 27 ------- null}
h -t 1.598892 -s 3 -d 5 -p ack -e 40 -c 1 -i 60 -a 1 -x {3.0 1.0 -1 ------- null}
- -t 1.600108 -s 3 -d 5 -p ack -e 40 -c 1 -i 61 -a 1 -x {3.0 1.0 28 ------- null}
h -t 1.600108 -s 3 -d 5 -p ack -e 40 -c 1 -i 61 -a 1 -x {3.0 1.0 -1 ------- null}
- -t 1.601324 -s 3 -d 5 -p ack -e 40 -c 1 -i 62 -a 1 -x {3.0 1.0 29 ------- null}
h -t 1.601324 -s 3 -d 5 -p ack -e 40 -c 1 -i 62 -a 1 -x {3.0 1.0 -1 ------- null}
r -t 1.602068 -s 5 -d 3 -p tcp -e 1040 -c 1 -i 53 -a 1 -x {1.0 3.0 32 ------- null}
h -t 1.602068 -s 3 -d 5 -p ack -e 40 -c 1 -i 65 -a 1 -x {3.0 1.0 32 ------- null}
+ -t 1.607956 -s 3 -d 5 -p ack -e 40 -c 1 -i 63 -a 1 -x {3.0 1.0 30 ------- null}
- -t 1.607956 -s 3 -d 5 -p ack -e 40 -c 1 -i 63 -a 1 -x {3.0 1.0 30 ------- null}
h -t 1.607956 -s 3 -d 5 -p ack -e 40 -c 1 -i 63 -a 1 -x {3.0 1.0 -1 ------- null}
+ -t 1.625012 -s 3 -d 5 -p ack -e 40 -c 1 -i 64 -a 1 -x {3.0 1.0 31 ------- null}
- -t 1.625012 -s 3 -d 5 -p ack -e 40 -c 1 -i 64 -a 1 -x {3.0 1.0 31 ------- null}
h -t 1.625012 -s 3 -d 5 -p ack -e 40 -c 1 -i 64 -a 1 -x {3.0 1.0 -1 ------- null}
r -t 1.626544 -s 5 -d 1 -p ack -e 40 -c 1 -i 45 -a 1 -x {3.0 1.0 16 ------- null}
h -t 1.626544 -s 1 -d 5 -p tcp -e 1040 -c 1 -i 66 -a 1 -x {1.0 3.0 33 ------- null}
h -t 1.626544 -s 1 -d 5 -p tcp -e 1040 -c 1 -i 67 -a 1 -x {1.0 3.0 34 ------- null}
r -t 1.62776 -s 5 -d 1 -p ack -e 40 -c 1 -i 48 -a 1 -x {3.0 1.0 17 ------- null}
h -t 1.62776 -s 1 -d 5 -p tcp -e 1040 -c 1 -i 68 -a 1 -x {1.0 3.0 35 ------- null}
h -t 1.62776 -s 1 -d 5 -p tcp -e 1040 -c 1 -i 69 -a 1 -x {1.0 3.0 36 ------- null}
r -t 1.628976 -s 5 -d 1 -p ack -e 40 -c 1 -i 49 -a 1 -x {3.0 1.0 18 ------- null}
h -t 1.628976 -s 1 -d 5 -p tcp -e 1040 -c 1 -i 70 -a 1 -x {1.0 3.0 37 ------- null}
h -t 1.628976 -s 1 -d 5 -p tcp -e 1040 -c 1 -i 71 -a 1 -x {1.0 3.0 38 ------- null}
r -t 1.630192 -s 5 -d 1 -p ack -e 40 -c 1 -i 50 -a 1 -x {3.0 1.0 19 ------- null}
h -t 1.630192 -s 1 -d 5 -p tcp -e 1040 -c 1 -i 72 -a 1 -x {1.0 3.0 39 ------- null}
r -t 1.631408 -s 5 -d 1 -p ack -e 40 -c 1 -i 51 -a 1 -x {3.0 1.0 20 ------- null}
h -t 1.631408 -s 1 -d 5 -p tcp -e 1040 -c 1 -i 73 -a 1 -x {1.0 3.0 40 ------- null}
r -t 1.632624 -s 5 -d 1 -p ack -e 40 -c 1 -i 54 -a 1 -x {3.0 1.0 21 ------- null}
h -t 1.632624 -s 1 -d 5 -p tcp -e 1040 -c 1 -i 74 -a 1 -x {1.0 3.0 41 ------- null}
r -t 1.63384 -s 5 -d 1 -p ack -e 40 -c 1 -i 55 -a 1 -x {3.0 1.0 22 ------- null}
h -t 1.63384 -s 1 -d 5 -p tcp -e 1040 -c 1 -i 75 -a 1 -x {1.0 3.0 42 ------- null}
r -t 1.635056 -s 5 -d 1 -p ack -e 40 -c 1 -i 56 -a 1 -x {3.0 1.0 23 ------- null}
h -t 1.635056 -s 1 -d 5 -p tcp -e 1040 -c 1 -i 76 -a 1 -x {1.0 3.0 43 ------- null}
r -t 1.636272 -s 5 -d 1 -p ack -e 40 -c 1 -i 57 -a 1 -x {3.0 1.0 24 ------- null}
h -t 1.636272 -s 1 -d 5 -p tcp -e 1040 -c 1 -i 77 -a 1 -x {1.0 3.0 44 ------- null}
r -t 1.637488 -s 5 -d 1 -p ack -e 40 -c 1 -i 58 -a 1 -x {3.0 1.0 25 ------- null}
h -t 1.637488 -s 1 -d 5 -p tcp -e 1040 -c 1 -i 78 -a 1 -x {1.0 3.0 45 ------- null}
r -t 1.638704 -s 5 -d 1 -p ack -e 40 -c 1 -i 59 -a 1 -x {3.0 1.0 26 ------- null}
h -t 1.638704 -s 1 -d 5 -p tcp -e 1040 -c 1 -i 79 -a 1 -x {1.0 3.0 46 ------- null}
r -t 1.63992 -s 5 -d 1 -p ack -e 40 -c 1 -i 60 -a 1 -x {3.0 1.0 27 ------- null}
h -t 1.63992 -s 1 -d 5 -p tcp -e 1040 -c 1 -i 80 -a 1 -x {1.0 3.0 47 ------- null}
r -t 1.641136 -s 5 -d 1 -p ack -e 40 -c 1 -i 61 -a 1 -x {3.0 1.0 28 ------- null}
h -t 1.641136 -s 1 -d 5 -p tcp -e 1040 -c 1 -i 81 -a 1 -x {1.0 3.0 48 ------- null}
+ -t 1.642068 -s 3 -d 5 -p ack -e 40 -c 1 -i 65 -a 1 -x {3.0 1.0 32 ------- null}
- -t 1.642068 -s 3 -d 5 -p ack -e 40 -c 1 -i 65 -a 1 -x {3.0 1.0 32 ------- null}
h -t 1.642068 -s 3 -d 5 -p ack -e 40 -c 1 -i 65 -a 1 -x {3.0 1.0 -1 ------- null}
r -t 1.642352 -s 5 -d 1 -p ack -e 40 -c 1 -i 62 -a 1 -x {3.0 1.0 29 ------- null}
h -t 1.642352 -s 1 -d 5 -p tcp -e 1040 -c 1 -i 82 -a 1 -x {1.0 3.0 49 ------- null}
r -t 1.648984 -s 5 -d 1 -p ack -e 40 -c 1 -i 63 -a 1 -x {3.0 1.0 30 ------- null}
h -t 1.648984 -s 1 -d 5 -p tcp -e 1040 -c 1 -i 83 -a 1 -x {1.0 3.0 50 ------- null}
r -t 1.66604 -s 5 -d 1 -p ack -e 40 -c 1 -i 64 -a 1 -x {3.0 1.0 31 ------- null}
h -t 1.66604 -s 1 -d 5 -p tcp -e 1040 -c 1 -i 84 -a 1 -x {1.0 3.0 51 ------- null}
+ -t 1.666544 -s 1 -d 5 -p tcp -e 1040 -c 1 -i 66 -a 1 -x {1.0 3.0 33 ------- null}
- -t 1.666544 -s 1 -d 5 -p tcp -e 1040 -c 1 -i 66 -a 1 -x {1.0 3.0 33 ------- null}
h -t 1.666544 -s 1 -d 5 -p tcp -e 1040 -c 1 -i 66 -a 1 -x {1.0 3.0 -1 ------- null}
+ -t 1.666544 -s 1 -d 5 -p tcp -e 1040 -c 1 -i 67 -a 1 -x {1.0 3.0 34 ------- null}
+ -t 1.66776 -s 1 -d 5 -p tcp -e 1040 -c 1 -i 68 -a 1 -x {1.0 3.0 35 ------- null}
+ -t 1.66776 -s 1 -d 5 -p tcp -e 1040 -c 1 -i 69 -a 1 -x {1.0 3.0 36 ------- null}
+ -t 1.668976 -s 1 -d 5 -p tcp -e 1040 -c 1 -i 70 -a 1 -x {1.0 3.0 37 ------- null}
+ -t 1.668976 -s 1 -d 5 -p tcp -e 1040 -c 1 -i 71 -a 1 -x {1.0 3.0 38 ------- null}
+ -t 1.670192 -s 1 -d 5 -p tcp -e 1040 -c 1 -i 72 -a 1 -x {1.0 3.0 39 ------- null}